/*--------------------------------*- C++ -*----------------------------------*\
  =========                 |
  \\      /  F ield         | OpenFOAM: The Open Source CFD Toolbox
   \\    /   O peration     | Website:  https://openfoam.org
    \\  /    A nd           | Version:  6
     \\/     M anipulation  |
\*---------------------------------------------------------------------------*/
FoamFile
{
    version     2.0;
    format      ascii;
    class       volScalarField;
    location    "60";
    object      neg;
}
// * * * * * * * * * * * * * * * * * * * * * * * * * * * * * * * * * * * * * //

dimensions      [0 -3 1 0 0 1 0];

internalField   nonuniform List<scalar> 
8800
(
2.21983e-05
2.22588e-05
2.22607e-05
2.22055e-05
2.21606e-05
2.21306e-05
2.2107e-05
2.20799e-05
2.20494e-05
2.20157e-05
2.19787e-05
2.19386e-05
2.18956e-05
2.18497e-05
2.18012e-05
2.17502e-05
2.16969e-05
2.16414e-05
2.15841e-05
2.1525e-05
2.14644e-05
2.14027e-05
2.13442e-05
2.12865e-05
2.1229e-05
2.11717e-05
2.11145e-05
2.10571e-05
2.09991e-05
2.09401e-05
2.08798e-05
2.08183e-05
2.07552e-05
2.06928e-05
2.06313e-05
2.05718e-05
2.05165e-05
2.04634e-05
2.04132e-05
2.03665e-05
4.39505e-05
4.43353e-05
4.43291e-05
4.42623e-05
4.4202e-05
4.41471e-05
4.40924e-05
4.40343e-05
4.39712e-05
4.39026e-05
4.38282e-05
4.37481e-05
4.36625e-05
4.35717e-05
4.3476e-05
4.33758e-05
4.32714e-05
4.31633e-05
4.30519e-05
4.29377e-05
4.28209e-05
4.27028e-05
4.25978e-05
4.24963e-05
4.23965e-05
4.22979e-05
4.21994e-05
4.20996e-05
4.19964e-05
4.18882e-05
4.17736e-05
4.16522e-05
4.1524e-05
4.13927e-05
4.12607e-05
4.113e-05
4.10057e-05
4.08875e-05
4.07761e-05
4.06734e-05
6.56623e-05
6.61232e-05
6.61515e-05
6.60695e-05
6.59821e-05
6.58991e-05
6.58161e-05
6.57274e-05
6.56317e-05
6.55284e-05
6.54174e-05
6.52988e-05
6.5173e-05
6.50404e-05
6.49017e-05
6.47575e-05
6.46084e-05
6.44551e-05
6.42984e-05
6.41388e-05
6.39772e-05
6.3818e-05
6.36865e-05
6.356e-05
6.34378e-05
6.33181e-05
6.3198e-05
6.30737e-05
6.29407e-05
6.27949e-05
6.26332e-05
6.24544e-05
6.22591e-05
6.20527e-05
6.18402e-05
6.16268e-05
6.1421e-05
6.12242e-05
6.10392e-05
6.0869e-05
8.71731e-05
8.75179e-05
8.75377e-05
8.74564e-05
8.73594e-05
8.72589e-05
8.71528e-05
8.70371e-05
8.69116e-05
8.67766e-05
8.66323e-05
8.64794e-05
8.63186e-05
8.61507e-05
8.59767e-05
8.57975e-05
8.56142e-05
8.54279e-05
8.52394e-05
8.50496e-05
8.48605e-05
8.46842e-05
8.45449e-05
8.44149e-05
8.42921e-05
8.4173e-05
8.40518e-05
8.39215e-05
8.37744e-05
8.36032e-05
8.34024e-05
8.31697e-05
8.29064e-05
8.26198e-05
8.23186e-05
8.20121e-05
8.17128e-05
8.14256e-05
8.1155e-05
8.09051e-05
0.000108279
0.000108446
0.000108421
0.000108332
0.000108229
0.000108116
0.000107991
0.000107854
0.000107703
0.000107542
0.000107371
0.000107191
0.000107003
0.00010681
0.000106611
0.00010641
0.000106206
0.000106002
0.000105799
0.000105597
0.000105401
0.000105232
0.000105107
0.000104995
0.000104894
0.000104797
0.000104695
0.000104577
0.000104431
0.000104246
0.000104015
0.000103732
0.000103401
0.000103031
0.000102634
0.000102225
0.000101822
0.000101433
0.000101065
0.000100725
0.000128874
0.000128812
0.000128715
0.000128607
0.000128496
0.000128374
0.000128237
0.000128083
0.000127915
0.000127736
0.000127546
0.000127349
0.000127146
0.000126938
0.000126729
0.00012652
0.000126312
0.000126108
0.000125908
0.000125714
0.000125533
0.000125396
0.000125306
0.000125235
0.000125177
0.000125122
0.000125057
0.000124969
0.000124839
0.000124653
0.000124399
0.000124071
0.000123673
0.000123216
0.000122717
0.000122198
0.000121681
0.00012118
0.000120704
0.000120261
0.000148882
0.000148533
0.00014834
0.000148203
0.000148083
0.000147955
0.000147811
0.000147649
0.000147472
0.000147284
0.000147087
0.000146884
0.000146678
0.000146471
0.000146266
0.000146064
0.000145869
0.000145682
0.000145505
0.000145339
0.000145196
0.000145115
0.000145081
0.00014507
0.000145073
0.000145079
0.00014507
0.000145026
0.000144927
0.00014475
0.000144482
0.000144114
0.000143649
0.000143102
0.000142496
0.000141858
0.000141216
0.000140591
0.000139997
0.000139443
0.000168239
0.000167546
0.000167233
0.00016706
0.00016693
0.0001668
0.000166655
0.000166494
0.000166318
0.000166132
0.000165939
0.000165743
0.000165547
0.000165355
0.000165169
0.000164992
0.000164826
0.000164673
0.000164536
0.000164417
0.000164332
0.00016433
0.00016437
0.000164436
0.000164518
0.000164601
0.000164663
0.000164679
0.000164623
0.000164467
0.000164193
0.000163789
0.000163258
0.000162618
0.000161897
0.00016113
0.000160353
0.000159593
0.000158868
0.000158192
0.000186887
0.000185803
0.000185351
0.000185135
0.000184996
0.000184868
0.00018473
0.000184577
0.000184412
0.000184239
0.000184062
0.000183886
0.000183714
0.00018355
0.000183397
0.000183259
0.000183137
0.000183035
0.000182954
0.000182899
0.000182889
0.000182987
0.000183115
0.000183273
0.000183448
0.000183622
0.000183769
0.000183859
0.000183858
0.000183735
0.000183463
0.000183028
0.000182431
0.000181694
0.000180851
0.000179943
0.000179019
0.000178111
0.000177242
0.000176434
0.000204785
0.000203275
0.000202669
0.000202405
0.000202256
0.000202135
0.00020201
0.000201874
0.000201729
0.00020158
0.00020143
0.000201286
0.00020115
0.000201026
0.00020092
0.000200833
0.000200769
0.00020073
0.000200718
0.000200741
0.000200822
0.000201034
0.000201261
0.000201522
0.000201802
0.000202079
0.000202323
0.000202499
0.000202567
0.000202487
0.000202227
0.000201767
0.000201106
0.000200269
0.000199295
0.000198229
0.000197144
0.000196076
0.000195053
0.000194102
0.0002219
0.000219945
0.000219175
0.000218858
0.000218701
0.00021859
0.000218483
0.000218372
0.000218256
0.00021814
0.000218027
0.000217924
0.000217834
0.000217763
0.000217713
0.000217688
0.000217692
0.000217726
0.000217794
0.000217906
0.000218119
0.000218426
0.000218761
0.000219132
0.000219525
0.000219915
0.000220266
0.00022054
0.000220687
0.000220662
0.000220423
0.000219945
0.000219217
0.000218273
0.000217162
0.000215937
0.000214679
0.000213435
0.000212243
0.000211136
0.000238211
0.000235807
0.000234867
0.000234495
0.00023433
0.000234232
0.00023415
0.000234069
0.000233989
0.000233913
0.000233846
0.000233793
0.000233758
0.000233745
0.00023376
0.000233805
0.000233883
0.000233998
0.000234152
0.000234363
0.000234713
0.000235122
0.000235569
0.000236056
0.000236567
0.000237076
0.000237542
0.000237922
0.00023816
0.0002382
0.000237988
0.000237494
0.000236709
0.000235664
0.000234414
0.000233024
0.00023158
0.000230145
0.000228769
0.000227491
0.000253707
0.000250865
0.000249755
0.000249326
0.000249154
0.000249072
0.000249017
0.000248972
0.000248933
0.000248903
0.000248887
0.000248889
0.000248915
0.000248967
0.000249051
0.00024917
0.000249328
0.000249527
0.000249771
0.000250082
0.000250575
0.00025109
0.000251649
0.000252254
0.000252885
0.000253517
0.000254103
0.000254596
0.000254931
0.000255038
0.000254862
0.000254366
0.000253535
0.000252399
0.000251014
0.000249455
0.000247817
0.000246178
0.000244602
0.000243135
0.000268385
0.000265129
0.000263854
0.000263368
0.000263189
0.000263123
0.000263098
0.000263091
0.000263097
0.000263117
0.000263156
0.000263217
0.000263306
0.000263426
0.000263582
0.000263778
0.000264016
0.0002643
0.000264636
0.000265072
0.000265682
0.000266302
0.000266974
0.000267694
0.000268444
0.000269205
0.000269908
0.00027051
0.00027094
0.000271124
0.000270997
0.000270514
0.000269655
0.000268442
0.000266933
0.000265208
0.000263371
0.000261517
0.000259724
0.000258052
0.000282247
0.000278615
0.000277183
0.000276642
0.000276455
0.000276405
0.000276411
0.000276444
0.000276496
0.000276568
0.000276663
0.000276785
0.000276938
0.000277126
0.000277354
0.000277625
0.000277942
0.00027831
0.000278736
0.000279328
0.000280023
0.000280745
0.00028153
0.000282361
0.000283225
0.000284097
0.000284913
0.00028562
0.000286147
0.000286414
0.000286349
0.000285898
0.000285031
0.000283763
0.000282146
0.000280266
0.000278232
0.000276157
0.000274134
0.000272241
0.000295302
0.000291341
0.000289765
0.00028917
0.000288975
0.000288941
0.000288977
0.000289049
0.000289148
0.000289271
0.000289422
0.000289603
0.00028982
0.000290075
0.000290373
0.000290717
0.00029111
0.000291558
0.00029207
0.000292817
0.000293599
0.000294417
0.0002953
0.000296233
0.000297199
0.000298172
0.000299089
0.000299895
0.000300517
0.000300871
0.00030088
0.000300479
0.00029963
0.000298334
0.000296635
0.000294618
0.000292398
0.000290101
0.000287841
0.000285726
0.000307561
0.000303328
0.000301623
0.000300978
0.000300774
0.000300755
0.000300819
0.000300929
0.000301072
0.000301245
0.00030145
0.000301689
0.000301966
0.000302286
0.00030265
0.000303064
0.00030353
0.000304055
0.000304725
0.000305543
0.000306405
0.000307311
0.000308281
0.000309303
0.000310357
0.000311415
0.00031242
0.000313314
0.000314024
0.000314466
0.000314557
0.000314226
0.000313421
0.000312128
0.000310381
0.000308256
0.00030587
0.00030336
0.00030086
0.000298611
0.000319039
0.000314595
0.000312782
0.000312091
0.000311877
0.00031187
0.000311961
0.000312106
0.000312291
0.000312511
0.000312767
0.000313061
0.000313395
0.000313775
0.000314202
0.00031468
0.000315216
0.000315813
0.000316634
0.000317518
0.000318452
0.000319435
0.000320479
0.000321574
0.000322698
0.000323824
0.000324898
0.000325864
0.000326651
0.000327177
0.000327356
0.00032711
0.000326375
0.000325122
0.000323365
0.00032117
0.000318649
0.000315946
0.000313213
0.000310795
0.000329755
0.000325165
0.000323266
0.000322535
0.000322311
0.000322314
0.000322428
0.000322605
0.000322828
0.000323092
0.000323395
0.000323739
0.000324126
0.000324561
0.000325046
0.000325586
0.000326185
0.000326934
0.000327816
0.000328759
0.000329756
0.000330804
0.000331907
0.000333056
0.000334231
0.000335402
0.000336524
0.000337543
0.000338391
0.000338992
0.000339259
0.00033911
0.00033847
0.000337292
0.00033557
0.000333352
0.000330738
0.000327874
0.00032503
0.000322341
0.000339731
0.000335059
0.000333097
0.000332333
0.000332099
0.000332109
0.000332243
0.000332449
0.000332707
0.00033301
0.000333356
0.000333746
0.000334182
0.000334669
0.000335208
0.000335803
0.00033648
0.000337362
0.000338297
0.000339293
0.000340342
0.000341439
0.000342584
0.000343767
0.000344969
0.000346162
0.000347307
0.000348355
0.000349246
0.000349908
0.000350259
0.000350213
0.000349688
0.00034862
0.00034698
0.00034479
0.000342135
0.000339151
0.000336195
0.000333271
0.000348991
0.000344298
0.000342298
0.000341507
0.000341265
0.000341281
0.000341431
0.000341662
0.000341951
0.000342289
0.000342674
0.000343107
0.000343588
0.000344122
0.000344711
0.000345361
0.000346201
0.000347125
0.000348108
0.000349147
0.000350236
0.000351366
0.000352533
0.000353727
0.000354931
0.000356121
0.000357263
0.000358317
0.000359229
0.000359935
0.000360361
0.00036042
0.000360025
0.000359096
0.000357582
0.000355476
0.000352836
0.000349796
0.000346734
0.000343609
0.000357563
0.000352904
0.000350889
0.000350081
0.000349831
0.000349851
0.000350016
0.000350267
0.000350584
0.000350954
0.000351375
0.000351847
0.000352371
0.00035295
0.000353588
0.000354372
0.000355288
0.000356258
0.000357282
0.000358354
0.000359466
0.00036061
0.000361778
0.00036296
0.000364141
0.000365302
0.000366417
0.000367451
0.000368361
0.000369094
0.000369581
0.000369742
0.000369486
0.000368721
0.000367373
0.000365405
0.000362842
0.000359898
0.000356698
0.000353389
0.000365473
0.0003609
0.00035889
0.000358073
0.000357818
0.000357842
0.000358018
0.000358289
0.00035863
0.000359029
0.000359484
0.000359994
0.00036056
0.000361184
0.000361918
0.000362824
0.000363786
0.000364796
0.000365851
0.000366943
0.000368062
0.000369199
0.000370346
0.000371492
0.000372626
0.000373735
0.000374797
0.000375789
0.000376676
0.000377415
0.00037795
0.000378206
0.000378093
0.00037751
0.000376361
0.000374578
0.000372152
0.000369327
0.00036608
0.00036263
0.000372752
0.000368306
0.000366322
0.000365504
0.000365248
0.000365275
0.000365462
0.00036575
0.000366113
0.000366541
0.00036703
0.000367578
0.000368187
0.000368876
0.000369772
0.000370726
0.00037173
0.000372773
0.000373848
0.000374944
0.000376051
0.000377159
0.000378261
0.00037935
0.000380416
0.00038145
0.000382441
0.00038337
0.000384215
0.000384944
0.000385511
0.000385853
0.000385882
0.000385491
0.000384567
0.000383012
0.000380777
0.000378105
0.000374884
0.000371348
0.000379429
0.000375147
0.000373205
0.000372394
0.000372139
0.000372171
0.000372368
0.000372672
0.000373059
0.000373517
0.000374041
0.000374631
0.000375288
0.000376168
0.000377115
0.000378115
0.000379155
0.00038022
0.000381298
0.00038238
0.000383454
0.000384514
0.000385551
0.000386562
0.000387542
0.000388486
0.000389387
0.000390238
0.000391025
0.00039173
0.000392318
0.000392736
0.000392904
0.000392712
0.00039203
0.000390735
0.000388827
0.000386289
0.000383134
0.000379563
0.000385536
0.000381443
0.000379558
0.000378762
0.000378511
0.00037855
0.000378759
0.000379082
0.000379494
0.000379984
0.000380549
0.000381187
0.000382036
0.000382981
0.000383982
0.000385023
0.000386088
0.000387159
0.000388224
0.000389273
0.000390295
0.000391287
0.000392243
0.000393161
0.00039404
0.00039488
0.000395681
0.000396442
0.000397161
0.000397831
0.00039843
0.000398918
0.000399221
0.000399229
0.000398801
0.000397787
0.00039622
0.000393887
0.000390849
0.000387292
0.000391102
0.000387219
0.000385403
0.000384628
0.000384386
0.000384434
0.000384657
0.000385002
0.000385445
0.000385975
0.000386589
0.000387399
0.000388347
0.000389354
0.000390403
0.000391475
0.000392549
0.00039361
0.000394643
0.000395639
0.000396593
0.000397501
0.000398362
0.000399175
0.000399944
0.000400673
0.000401366
0.000402032
0.000402677
0.000403306
0.000403911
0.000404465
0.000404901
0.00040511
0.000404943
0.000404225
0.000402992
0.00040092
0.00039805
0.000394559
0.00039616
0.000392498
0.000390759
0.000390012
0.000389783
0.000389845
0.000390088
0.000390461
0.000390942
0.000391523
0.000392282
0.000393228
0.000394247
0.000395312
0.0003964
0.000397486
0.000398553
0.000399583
0.000400566
0.000401495
0.000402367
0.00040318
0.000403936
0.000404638
0.000405292
0.000405906
0.000406489
0.000407057
0.000407627
0.000408214
0.000408826
0.000409445
0.000410015
0.000410428
0.000410526
0.000410201
0.000409247
0.000407443
0.000404774
0.000401389
0.00040074
0.000397307
0.000395651
0.000394936
0.000394727
0.000394809
0.000395078
0.000395489
0.00039602
0.000396711
0.00039765
0.000398677
0.000399762
0.000400873
0.000401982
0.000403065
0.000404104
0.000405086
0.000406004
0.000406853
0.000407632
0.000408344
0.000408991
0.00040958
0.000410118
0.000410618
0.000411093
0.000411566
0.000412064
0.000412614
0.000413236
0.000413927
0.000414636
0.000415257
0.000415622
0.000415674
0.000415027
0.000413506
0.000411062
0.000407817
0.000404875
0.000401669
0.000400101
0.000399425
0.000399242
0.000399351
0.000399657
0.000400117
0.000400714
0.000401633
0.000402662
0.000403765
0.000404903
0.000406042
0.000407152
0.000408211
0.000409205
0.000410124
0.000410964
0.000411724
0.000412405
0.000413012
0.000413551
0.000414028
0.000414455
0.000414845
0.000415218
0.000415603
0.000416036
0.000416557
0.0004172
0.000417972
0.000418831
0.000419667
0.000420326
0.000420711
0.000420388
0.000419163
0.00041696
0.00041388
0.000408595
0.000405613
0.000404136
0.000403505
0.000403354
0.0004035
0.000403855
0.000404381
0.000405211
0.000406222
0.000407336
0.000408501
0.000409674
0.000410818
0.000411906
0.000412922
0.000413854
0.000414698
0.000415452
0.000416118
0.0004167
0.000417204
0.000417638
0.000418009
0.000418331
0.00041862
0.0004189
0.000419207
0.000419586
0.000420091
0.000420769
0.000421638
0.000422661
0.000423723
0.00042476
0.00042542
0.000425402
0.000424472
0.000422519
0.00041962
0.000411929
0.000409165
0.000407783
0.000407203
0.000407093
0.000407288
0.000407707
0.000408395
0.000409384
0.000410494
0.00041168
0.000412886
0.000414067
0.000415191
0.000416237
0.000417191
0.000418049
0.000418809
0.000419472
0.000420044
0.000420529
0.000420935
0.000421271
0.000421545
0.000421772
0.000421971
0.00042217
0.000422412
0.000422752
0.000423258
0.00042399
0.000424975
0.00042618
0.000427483
0.000428855
0.000429831
0.000430124
0.000429487
0.000427787
0.000425078
0.000414908
0.000412355
0.000411072
0.000410549
0.00041049
0.000410748
0.000411248
0.000412169
0.000413263
0.000414456
0.00041569
0.000416908
0.00041807
0.00041915
0.000420133
0.000421012
0.000421786
0.000422457
0.000423029
0.000423509
0.000423904
0.000424221
0.000424468
0.000424657
0.000424802
0.000424925
0.000425057
0.000425249
0.000425568
0.000426093
0.0004269
0.000428026
0.000429434
0.000431105
0.000432734
0.000434006
0.000434604
0.000434258
0.000432801
0.000430185
0.000417561
0.000415212
0.00041403
0.000413572
0.000413577
0.000413912
0.000414643
0.00041567
0.000416854
0.000418104
0.000419354
0.000420554
0.000421669
0.000422683
0.000423588
0.000424381
0.000425065
0.000425647
0.000426131
0.000426526
0.000426838
0.000427076
0.000427248
0.000427365
0.000427443
0.000427504
0.000427586
0.000427745
0.000428061
0.000428628
0.000429535
0.000430825
0.000432465
0.000434459
0.000436398
0.000437979
0.000438883
0.00043881
0.0004375
0.000435074
0.000419918
0.000417765
0.000416687
0.000416302
0.000416384
0.00041684
0.000417773
0.000418906
0.000420155
0.000421428
0.00042266
0.00042381
0.000424855
0.000425785
0.000426599
0.0004273
0.000427894
0.000428388
0.000428791
0.000429109
0.00042935
0.000429521
0.000429631
0.00042969
0.000429715
0.000429731
0.000429779
0.000429925
0.000430258
0.000430889
0.000431919
0.0004334
0.000435389
0.000437646
0.000439886
0.000441778
0.000442986
0.000443128
0.000441993
0.000439797
0.000422004
0.000420041
0.000419071
0.000418769
0.000418943
0.000419626
0.000420664
0.000421878
0.000423157
0.000424414
0.000425593
0.000426667
0.000427621
0.000428455
0.000429172
0.00042978
0.000430287
0.000430701
0.00043103
0.000431281
0.000431462
0.000431579
0.00043164
0.000431656
0.000431644
0.00043163
0.000431661
0.00043181
0.000432181
0.000432898
0.000434076
0.000435794
0.000438081
0.000440648
0.000443208
0.000445415
0.000446938
0.000447249
0.00044632
0.000444391
0.000423847
0.000422067
0.000421208
0.000421003
0.000421308
0.000422185
0.000423319
0.000424578
0.000425847
0.00042705
0.000428148
0.000429123
0.000429975
0.000430706
0.000431327
0.000431846
0.000432272
0.000432614
0.00043288
0.000433075
0.000433207
0.000433281
0.000433306
0.000433292
0.000433256
0.000433227
0.000433256
0.000433426
0.000433853
0.000434676
0.000436023
0.000438042
0.000440599
0.000443479
0.000446365
0.000448938
0.000450703
0.000451199
0.000450504
0.000448876
0.000425469
0.000423867
0.000423125
0.000423029
0.000423556
0.000424537
0.000425736
0.000426996
0.000428214
0.000429331
0.000430325
0.000431191
0.000431934
0.000432566
0.000433095
0.000433533
0.000433889
0.000434169
0.000434381
0.000434531
0.000434624
0.000434667
0.000434666
0.000434632
0.000434582
0.00043455
0.000434591
0.000434796
0.000435293
0.000436239
0.000437809
0.000440077
0.000442926
0.000446127
0.000449342
0.000452327
0.000454283
0.000454986
0.000454546
0.00045325
0.000426893
0.000425464
0.000424847
0.000424875
0.000425609
0.000426682
0.000427904
0.000429122
0.000430253
0.000431261
0.000432139
0.000432892
0.000433533
0.000434072
0.000434521
0.00043489
0.000435185
0.000435414
0.000435583
0.000435696
0.00043576
0.000435778
0.000435759
0.000435713
0.000435659
0.000435632
0.000435694
0.000435945
0.000436525
0.000437605
0.000439398
0.000441911
0.000445054
0.000448577
0.000452156
0.000455494
0.000457669
0.000458602
0.000458429
0.000457483
0.00042814
0.00042688
0.000426397
0.000426643
0.000427488
0.000428615
0.000429812
0.000430949
0.000431968
0.000432855
0.000433616
0.000434265
0.000434815
0.000435276
0.000435659
0.000435971
0.000436218
0.000436407
0.00043654
0.000436624
0.000436663
0.000436663
0.00043663
0.000436576
0.000436522
0.000436507
0.000436596
0.000436899
0.00043757
0.000438826
0.000440799
0.000443549
0.000446975
0.000450807
0.000454752
0.000458387
0.000460828
0.000462028
0.000462137
0.000461531
2.03237e-05
2.02853e-05
2.02527e-05
2.0224e-05
2.01991e-05
2.01784e-05
2.01617e-05
2.01492e-05
2.01409e-05
2.01367e-05
2.01367e-05
2.01409e-05
2.01492e-05
2.01617e-05
2.01784e-05
2.01991e-05
2.0224e-05
2.02527e-05
2.02853e-05
2.03237e-05
4.05798e-05
4.04952e-05
4.04197e-05
4.03594e-05
4.0306e-05
4.02597e-05
4.02213e-05
4.01915e-05
4.01707e-05
4.01582e-05
4.01582e-05
4.01707e-05
4.01915e-05
4.02213e-05
4.02597e-05
4.0306e-05
4.03594e-05
4.04197e-05
4.04952e-05
4.05798e-05
6.07141e-05
6.05739e-05
6.0446e-05
6.03322e-05
6.02409e-05
6.01588e-05
6.00884e-05
6.00326e-05
5.99931e-05
5.99711e-05
5.99711e-05
5.99931e-05
6.00326e-05
6.00884e-05
6.01588e-05
6.02409e-05
6.03322e-05
6.0446e-05
6.05739e-05
6.07141e-05
8.0677e-05
8.04702e-05
8.02798e-05
8.00971e-05
7.99473e-05
7.98167e-05
7.9702e-05
7.96091e-05
7.95425e-05
7.9506e-05
7.9506e-05
7.95425e-05
7.96091e-05
7.9702e-05
7.98167e-05
7.99473e-05
8.00971e-05
8.02798e-05
8.04702e-05
8.0677e-05
0.000100412
0.000100128
9.98633e-05
9.96091e-05
9.93729e-05
9.91814e-05
9.90106e-05
9.88704e-05
9.87688e-05
9.87125e-05
9.87125e-05
9.87688e-05
9.88704e-05
9.90106e-05
9.91814e-05
9.93729e-05
9.96091e-05
9.98633e-05
0.000100128
0.000100412
0.000119855
0.000119483
0.000119135
0.0001188
0.000118466
0.000118202
0.000117966
0.00011777
0.000117628
0.000117548
0.000117548
0.000117628
0.00011777
0.000117966
0.000118202
0.000118466
0.0001188
0.000119135
0.000119483
0.000119855
0.000138933
0.000138465
0.000138028
0.000137606
0.000137187
0.000136828
0.000136519
0.000136263
0.000136075
0.000135971
0.000135971
0.000136075
0.000136263
0.000136519
0.000136828
0.000137187
0.000137606
0.000138028
0.000138465
0.000138933
0.000157571
0.000157
0.000156468
0.000155956
0.000155451
0.000155003
0.000154619
0.000154299
0.000154064
0.000153933
0.000153933
0.000154064
0.000154299
0.000154619
0.000155003
0.000155451
0.000155956
0.000156468
0.000157
0.000157571
0.000175693
0.000175015
0.000174384
0.000173782
0.000173191
0.000172671
0.00017221
0.000171826
0.000171543
0.000171386
0.000171386
0.000171543
0.000171826
0.00017221
0.000172671
0.000173191
0.000173782
0.000174384
0.000175015
0.000175693
0.000193231
0.000192439
0.000191708
0.000191015
0.000190359
0.000189773
0.000189238
0.00018879
0.000188461
0.000188278
0.000188278
0.000188461
0.00018879
0.000189238
0.000189773
0.000190359
0.000191015
0.000191708
0.000192439
0.000193231
0.000210126
0.000209213
0.000208377
0.000207594
0.000206915
0.000206251
0.000205645
0.000205137
0.000204763
0.000204555
0.000204555
0.000204763
0.000205137
0.000205645
0.000206251
0.000206915
0.000207594
0.000208377
0.000209213
0.000210126
0.000226328
0.000225284
0.00022434
0.000223545
0.00022279
0.000222054
0.000221382
0.000220818
0.000220401
0.000220168
0.000220168
0.000220401
0.000220818
0.000221382
0.000222054
0.00022279
0.000223545
0.00022434
0.000225284
0.000226328
0.000241805
0.00024062
0.000239655
0.000238776
0.000237941
0.000237137
0.000236403
0.000235786
0.000235329
0.000235073
0.000235073
0.000235329
0.000235786
0.000236403
0.000237137
0.000237941
0.000238776
0.000239655
0.00024062
0.000241805
0.000256539
0.000255302
0.000254224
0.000253247
0.000252333
0.000251464
0.000250674
0.000250008
0.000249514
0.000249237
0.000249237
0.000249514
0.000250008
0.000250674
0.000251464
0.000252333
0.000253247
0.000254224
0.000255302
0.000256539
0.00027061
0.000269235
0.000268024
0.000266942
0.000265948
0.000265017
0.000264173
0.000263463
0.000262934
0.000262635
0.000262635
0.000262934
0.000263463
0.000264173
0.000265017
0.000265948
0.000266942
0.000268024
0.000269235
0.00027061
0.000283969
0.000282413
0.000281054
0.000279859
0.000278781
0.000277789
0.000276895
0.000276142
0.00027558
0.000275262
0.000275262
0.00027558
0.000276142
0.000276895
0.000277789
0.000278781
0.000279859
0.000281054
0.000282413
0.000283969
0.000296611
0.000294853
0.00029333
0.00029201
0.000290844
0.000289788
0.000288846
0.000288054
0.000287461
0.000287123
0.000287123
0.000287461
0.000288054
0.000288846
0.000289788
0.000290844
0.00029201
0.00029333
0.000294853
0.000296611
0.00030856
0.000306584
0.000304881
0.000303424
0.000302161
0.00030104
0.00030005
0.00029922
0.000298599
0.000298241
0.000298241
0.000298599
0.00029922
0.00030005
0.00030104
0.000302161
0.000303424
0.000304881
0.000306584
0.00030856
0.000319854
0.000317644
0.000315745
0.000314138
0.000312769
0.000311579
0.000310542
0.000309677
0.000309027
0.000308651
0.000308651
0.000309027
0.000309677
0.000310542
0.000311579
0.000312769
0.000314138
0.000315745
0.000317644
0.000319854
0.000330529
0.000328076
0.000325967
0.000324197
0.000322714
0.000321451
0.000320367
0.000319468
0.000318793
0.000318399
0.000318399
0.000318793
0.000319468
0.000320367
0.000321451
0.000322714
0.000324197
0.000325967
0.000328076
0.000330529
0.000340623
0.000337924
0.000335596
0.000333653
0.000332049
0.000330709
0.000329578
0.000328647
0.000327949
0.000327539
0.000327539
0.000327949
0.000328647
0.000329578
0.000330709
0.000332049
0.000333653
0.000335596
0.000337924
0.000340623
0.000350173
0.000347232
0.000344681
0.000342559
0.000340827
0.000339408
0.000338231
0.000337273
0.000336556
0.00033613
0.00033613
0.000336556
0.000337273
0.000338231
0.000339408
0.000340827
0.000342559
0.000344681
0.000347232
0.000350173
0.000359211
0.00035604
0.000353271
0.000350968
0.000349107
0.000347608
0.000346389
0.000345408
0.000344675
0.000344237
0.000344237
0.000344675
0.000345408
0.000346389
0.000347608
0.000349107
0.000350968
0.000353271
0.00035604
0.000359211
0.000367763
0.000364386
0.00036141
0.000358931
0.000356943
0.000355368
0.000354111
0.000353113
0.000352371
0.000351925
0.000351925
0.000352371
0.000353113
0.000354111
0.000355368
0.000356943
0.000358931
0.00036141
0.000364386
0.000367763
0.000375854
0.000372301
0.000369137
0.000366494
0.000364389
0.000362745
0.000361458
0.000360452
0.000359707
0.000359257
0.000359257
0.000359707
0.000360452
0.000361458
0.000362745
0.000364389
0.000366494
0.000369137
0.000372301
0.000375854
0.000383506
0.000379813
0.000376488
0.000373703
0.000371494
0.000369794
0.000368488
0.000367484
0.000366746
0.000366298
0.000366298
0.000366746
0.000367484
0.000368488
0.000369794
0.000371494
0.000373703
0.000376488
0.000379813
0.000383506
0.000390741
0.000386949
0.000383498
0.000380595
0.000378306
0.000376568
0.000375258
0.000374268
0.000373547
0.000373107
0.000373107
0.000373547
0.000374268
0.000375258
0.000376568
0.000378306
0.000380595
0.000383498
0.000386949
0.000390741
0.000397585
0.000393735
0.000390195
0.00038721
0.000384868
0.000383115
0.000381821
0.00038086
0.000380167
0.000379741
0.000379741
0.000380167
0.00038086
0.000381821
0.000383115
0.000384868
0.00038721
0.000390195
0.000393735
0.000397585
0.000404064
0.000400197
0.000396609
0.00039358
0.000391221
0.000389482
0.000388226
0.000387311
0.000386656
0.000386252
0.000386252
0.000386656
0.000387311
0.000388226
0.000389482
0.000391221
0.00039358
0.000396609
0.000400197
0.000404064
0.00041021
0.000406364
0.000402771
0.000399742
0.000397405
0.000395711
0.000394518
0.000393668
0.000393065
0.000392688
0.000392688
0.000393065
0.000393668
0.000394518
0.000395711
0.000397405
0.000399742
0.000402771
0.000406364
0.00041021
0.000416058
0.000412268
0.000408687
0.000405715
0.000403463
0.00040186
0.000400753
0.00039998
0.000399436
0.000399091
0.000399091
0.000399436
0.00039998
0.000400753
0.00040186
0.000403463
0.000405715
0.000408687
0.000412268
0.000416058
0.000421588
0.000417881
0.000414433
0.000411589
0.000409459
0.00040797
0.000406967
0.000406282
0.000405804
0.000405495
0.000405495
0.000405804
0.000406282
0.000406967
0.00040797
0.000409459
0.000411589
0.000414433
0.000417881
0.000421588
0.00042686
0.000423335
0.000420072
0.0004174
0.000415424
0.000414073
0.000413189
0.000412604
0.000412199
0.00041193
0.00041193
0.000412199
0.000412604
0.000413189
0.000414073
0.000415424
0.0004174
0.000420072
0.000423335
0.00042686
0.000431967
0.000428673
0.00042564
0.000423177
0.000421386
0.000420195
0.000419447
0.00041897
0.000418644
0.000418419
0.000418419
0.000418644
0.00041897
0.000419447
0.000420195
0.000421386
0.000423177
0.00042564
0.000428673
0.000431967
0.000436952
0.000433931
0.000431165
0.000428946
0.000427368
0.000426359
0.000425759
0.000425401
0.00042516
0.000424981
0.000424981
0.00042516
0.000425401
0.000425759
0.000426359
0.000427368
0.000428946
0.000431165
0.000433931
0.000436952
0.000441849
0.000439136
0.000436668
0.000434724
0.000433389
0.000432582
0.000432146
0.000431913
0.000431762
0.000431634
0.000431634
0.000431762
0.000431913
0.000432146
0.000432582
0.000433389
0.000434724
0.000436668
0.000439136
0.000441849
0.000446675
0.000444302
0.000442164
0.000440529
0.000439467
0.000438886
0.000438626
0.000438526
0.000438467
0.000438391
0.000438391
0.000438467
0.000438526
0.000438626
0.000438886
0.000439467
0.000440529
0.000442164
0.000444302
0.000446675
0.000451433
0.000449433
0.000447664
0.000446382
0.000445628
0.000445294
0.00044522
0.000445254
0.000445285
0.000445261
0.000445261
0.000445285
0.000445254
0.00044522
0.000445294
0.000445628
0.000446382
0.000447664
0.000449433
0.000451433
0.00045611
0.00045453
0.000453193
0.000452323
0.000451912
0.000451838
0.000451948
0.000452108
0.000452224
0.000452246
0.000452246
0.000452224
0.000452108
0.000451948
0.000451838
0.000451912
0.000452323
0.000453193
0.00045453
0.00045611
0.000460731
0.000459631
0.000458825
0.000458422
0.00045836
0.000458529
0.000458804
0.000459073
0.00045926
0.000459328
0.000459328
0.00045926
0.000459073
0.000458804
0.000458529
0.00045836
0.000458422
0.000458825
0.000459631
0.000460731
2.03665e-05
2.04132e-05
2.04634e-05
2.05165e-05
2.05718e-05
2.06313e-05
2.06928e-05
2.07552e-05
2.08183e-05
2.08798e-05
2.09401e-05
2.09991e-05
2.10571e-05
2.11145e-05
2.11717e-05
2.1229e-05
2.12865e-05
2.13442e-05
2.14027e-05
2.14644e-05
2.1525e-05
2.15841e-05
2.16414e-05
2.16969e-05
2.17502e-05
2.18012e-05
2.18497e-05
2.18956e-05
2.19386e-05
2.19787e-05
2.20157e-05
2.20494e-05
2.20799e-05
2.2107e-05
2.21306e-05
2.21606e-05
2.22055e-05
2.22607e-05
2.22588e-05
2.21983e-05
4.06734e-05
4.07761e-05
4.08875e-05
4.10057e-05
4.113e-05
4.12607e-05
4.13927e-05
4.1524e-05
4.16522e-05
4.17736e-05
4.18882e-05
4.19964e-05
4.20996e-05
4.21994e-05
4.22979e-05
4.23965e-05
4.24963e-05
4.25978e-05
4.27028e-05
4.28209e-05
4.29377e-05
4.30519e-05
4.31633e-05
4.32714e-05
4.33758e-05
4.3476e-05