/*--------------------------------*- C++ -*----------------------------------*\
  =========                 |
  \\      /  F ield         | OpenFOAM: The Open Source CFD Toolbox
   \\    /   O peration     | Website:  https://openfoam.org
    \\  /    A nd           | Version:  6
     \\/     M anipulation  |
\*---------------------------------------------------------------------------*/
FoamFile
{
    version     2.0;
    format      ascii;
    class       volVectorField;
    location    "80";
    object      force;
}
// * * * * * * * * * * * * * * * * * * * * * * * * * * * * * * * * * * * * * //

dimensions      [0 1 -2 0 0 0 0];

internalField   nonuniform List<vector> 
8800
(
(-8.07254e-06 -0.0607291 -0)
(-2.0638e-05 -0.0610294 -0)
(-2.87316e-05 -0.0611995 -0)
(-3.57799e-05 -0.0613337 -0)
(-4.25733e-05 -0.0614574 -0)
(-4.93399e-05 -0.0615912 -0)
(-5.60537e-05 -0.0617408 -0)
(-6.26698e-05 -0.0619076 -0)
(-6.91484e-05 -0.0620917 -0)
(-7.54573e-05 -0.0622923 -0)
(-8.15702e-05 -0.0625088 -0)
(-8.74645e-05 -0.0627402 -0)
(-9.31206e-05 -0.0629855 -0)
(-9.85207e-05 -0.0632437 -0)
(-0.000103648 -0.063514 -0)
(-0.000108488 -0.0637953 -0)
(-0.000113024 -0.0640867 -0)
(-0.000117241 -0.0643872 -0)
(-0.000121121 -0.0646959 -0)
(-0.000124648 -0.065012 -0)
(-0.000127802 -0.0653343 -0)
(-0.000130563 -0.065662 -0)
(-0.00013291 -0.0659941 -0)
(-0.000134818 -0.0663296 -0)
(-0.000136265 -0.0666672 -0)
(-0.000137227 -0.0670058 -0)
(-0.000137685 -0.0673441 -0)
(-0.000137622 -0.0676808 -0)
(-0.000137029 -0.0680146 -0)
(-0.000135901 -0.068344 -0)
(-0.000134245 -0.0686679 -0)
(-0.000132069 -0.0689854 -0)
(-0.000129384 -0.0692937 -0)
(-0.000126189 -0.0695938 -0)
(-0.000122453 -0.0698856 -0)
(-0.000118149 -0.070168 -0)
(-0.00011326 -0.0704399 -0)
(-0.00010778 -0.0707 -0)
(-0.00010171 -0.0709468 -0)
(-9.50602e-05 -0.0711789 -0)
(-1.78655e-05 -0.0504337 -0)
(-4.85997e-05 -0.050665 -0)
(-7.17568e-05 -0.0508355 -0)
(-9.14769e-05 -0.0509672 -0)
(-0.000109874 -0.051087 -0)
(-0.000127764 -0.0512113 -0)
(-0.000145352 -0.0513474 -0)
(-0.000162636 -0.051498 -0)
(-0.000179558 -0.0516634 -0)
(-0.000196054 -0.0518434 -0)
(-0.000212061 -0.0520373 -0)
(-0.000227521 -0.0522444 -0)
(-0.000242382 -0.0524636 -0)
(-0.000256597 -0.0526942 -0)
(-0.000270118 -0.0529351 -0)
(-0.000282903 -0.0531856 -0)
(-0.000294908 -0.0534447 -0)
(-0.000306087 -0.0537115 -0)
(-0.000316394 -0.0539852 -0)
(-0.000325782 -0.0542648 -0)
(-0.000334197 -0.0545497 -0)
(-0.000341584 -0.0548389 -0)
(-0.000347884 -0.0551315 -0)
(-0.000353036 -0.0554266 -0)
(-0.000356977 -0.0557232 -0)
(-0.000359647 -0.0560202 -0)
(-0.000360991 -0.0563166 -0)
(-0.000360965 -0.0566111 -0)
(-0.000359539 -0.0569026 -0)
(-0.000356697 -0.0571896 -0)
(-0.000352448 -0.0574704 -0)
(-0.000346821 -0.0577402 -0)
(-0.000339856 -0.058001 -0)
(-0.000331507 -0.0582551 -0)
(-0.000321698 -0.0585018 -0)
(-0.000310379 -0.0587402 -0)
(-0.000297518 -0.0589694 -0)
(-0.0002831 -0.0591885 -0)
(-0.000267134 -0.0593962 -0)
(-0.000249648 -0.0595914 -0)
(-2.47662e-05 -0.0416924 -0)
(-6.7996e-05 -0.0419919 -0)
(-0.000101446 -0.0421652 -0)
(-0.000130364 -0.0422896 -0)
(-0.000157302 -0.0423983 -0)
(-0.000183356 -0.0425099 -0)
(-0.000208875 -0.0426317 -0)
(-0.000233912 -0.042766 -0)
(-0.000258424 -0.0429135 -0)
(-0.000282334 -0.0430738 -0)
(-0.000305561 -0.0432462 -0)
(-0.000328027 -0.04343 -0)
(-0.000349653 -0.0436243 -0)
(-0.00037037 -0.0438283 -0)
(-0.000390107 -0.044041 -0)
(-0.000408798 -0.0442615 -0)
(-0.000426373 -0.0444891 -0)
(-0.000442764 -0.0447228 -0)
(-0.000457901 -0.0449619 -0)
(-0.000471708 -0.0452054 -0)
(-0.000484106 -0.0454528 -0)
(-0.000495011 -0.0457031 -0)
(-0.000504337 -0.0459557 -0)
(-0.00051199 -0.0462098 -0)
(-0.00051788 -0.0464645 -0)
(-0.000521916 -0.0467189 -0)
(-0.000524015 -0.046972 -0)
(-0.000524109 -0.0472227 -0)
(-0.000522148 -0.0474697 -0)
(-0.000518105 -0.0477105 -0)
(-0.000512002 -0.0479391 -0)
(-0.000503929 -0.0481563 -0)
(-0.000493899 -0.0483692 -0)
(-0.000481782 -0.0485759 -0)
(-0.000467507 -0.0487762 -0)
(-0.000451019 -0.0489697 -0)
(-0.000432282 -0.0491556 -0)
(-0.000411284 -0.0493332 -0)
(-0.000388039 -0.0495016 -0)
(-0.000362593 -0.0496597 -0)
(-2.95213e-05 -0.0343528 -0)
(-8.12125e-05 -0.0347576 -0)
(-0.000121237 -0.0349543 -0)
(-0.000156113 -0.0350741 -0)
(-0.000188745 -0.0351711 -0)
(-0.000220326 -0.0352688 -0)
(-0.000251247 -0.0353755 -0)
(-0.000281584 -0.0354936 -0)
(-0.000311299 -0.0356233 -0)
(-0.000340311 -0.0357643 -0)
(-0.000368527 -0.0359157 -0)
(-0.000395853 -0.0360769 -0)
(-0.000422194 -0.0362469 -0)
(-0.000447462 -0.0364248 -0)
(-0.000471568 -0.0366096 -0)
(-0.000494425 -0.0368006 -0)
(-0.000515944 -0.0369968 -0)
(-0.000536037 -0.0371974 -0)
(-0.000554612 -0.0374016 -0)
(-0.000571572 -0.0376088 -0)
(-0.000586818 -0.0378181 -0)
(-0.000600243 -0.038029 -0)
(-0.000611739 -0.0382409 -0)
(-0.000621191 -0.038453 -0)
(-0.000628485 -0.0386648 -0)
(-0.000633508 -0.0388755 -0)
(-0.000636156 -0.0390841 -0)
(-0.00063634 -0.0392892 -0)
(-0.000633994 -0.0394885 -0)
(-0.00062909 -0.0396771 -0)
(-0.000621661 -0.0398469 -0)
(-0.000611979 -0.040017 -0)
(-0.000599798 -0.0401824 -0)
(-0.000585031 -0.0403428 -0)
(-0.000567616 -0.0404981 -0)
(-0.000547502 -0.0406481 -0)
(-0.000524655 -0.0407924 -0)
(-0.00049907 -0.0409304 -0)
(-0.00047077 -0.0410614 -0)
(-0.000439816 -0.0411845 -0)
(-3.23754e-05 -0.0282401 -0)
(-8.93367e-05 -0.0287501 -0)
(-0.000133308 -0.0289786 -0)
(-0.000171687 -0.0291002 -0)
(-0.000207706 -0.0291886 -0)
(-0.00024263 -0.0292737 -0)
(-0.000276867 -0.0293659 -0)
(-0.000310495 -0.0294679 -0)
(-0.000343467 -0.0295801 -0)
(-0.000375696 -0.029702 -0)
(-0.000407079 -0.0298329 -0)
(-0.000437508 -0.0299717 -0)
(-0.000466878 -0.0301175 -0)
(-0.000495084 -0.0302695 -0)
(-0.00052202 -0.0304266 -0)
(-0.000547584 -0.0305879 -0)
(-0.000571672 -0.0307527 -0)
(-0.000594177 -0.0309202 -0)
(-0.000614991 -0.0310895 -0)
(-0.000634 -0.0312601 -0)
(-0.000651088 -0.0314313 -0)
(-0.000666134 -0.0316027 -0)
(-0.000679012 -0.0317737 -0)
(-0.000689594 -0.0319438 -0)
(-0.00069775 -0.0321126 -0)
(-0.000703351 -0.0322793 -0)
(-0.000706274 -0.0324428 -0)
(-0.000706407 -0.0326007 -0)
(-0.000703665 -0.0327484 -0)
(-0.000697996 -0.0328756 -0)
(-0.000689874 -0.0330027 -0)
(-0.000679065 -0.0331274 -0)
(-0.00066543 -0.0332485 -0)
(-0.000648896 -0.033366 -0)
(-0.000629411 -0.0334799 -0)
(-0.000606932 -0.0335904 -0)
(-0.000581436 -0.033697 -0)
(-0.000552924 -0.0337994 -0)
(-0.000521429 -0.033897 -0)
(-0.000487018 -0.0339889 -0)
(-3.36222e-05 -0.0231686 -0)
(-9.33057e-05 -0.0237799 -0)
(-0.000139312 -0.0240424 -0)
(-0.000179426 -0.0241694 -0)
(-0.000217108 -0.0242518 -0)
(-0.000253699 -0.024326 -0)
(-0.000289624 -0.0244045 -0)
(-0.000324958 -0.0244911 -0)
(-0.00035965 -0.0245862 -0)
(-0.000393601 -0.0246894 -0)
(-0.000426698 -0.0247998 -0)
(-0.000458825 -0.0249164 -0)
(-0.000489862 -0.0250384 -0)
(-0.000519693 -0.0251647 -0)
(-0.0005482 -0.0252943 -0)
(-0.000575266 -0.0254263 -0)
(-0.000600774 -0.0255601 -0)
(-0.000624603 -0.0256947 -0)
(-0.000646632 -0.0258297 -0)
(-0.000666736 -0.0259643 -0)
(-0.000684787 -0.0260983 -0)
(-0.000700653 -0.026231 -0)
(-0.000714199 -0.0263623 -0)
(-0.000725289 -0.0264917 -0)
(-0.000733783 -0.0266187 -0)
(-0.000739541 -0.0267425 -0)
(-0.000742422 -0.0268614 -0)
(-0.000742292 -0.0269715 -0)
(-0.00073904 -0.0270652 -0)
(-0.00073292 -0.0271469 -0)
(-0.00072426 -0.0272331 -0)
(-0.000712697 -0.0273174 -0)
(-0.000698135 -0.0273994 -0)
(-0.000680523 -0.0274793 -0)
(-0.000659821 -0.0275575 -0)
(-0.000636001 -0.0276339 -0)
(-0.000609048 -0.0277084 -0)
(-0.000578973 -0.0277807 -0)
(-0.000545812 -0.0278502 -0)
(-0.000509637 -0.0279162 -0)
(-3.35511e-05 -0.0189708 -0)
(-9.39489e-05 -0.0196754 -0)
(-0.000140609 -0.019971 -0)
(-0.000181217 -0.0201049 -0)
(-0.000219338 -0.0201831 -0)
(-0.000256373 -0.0202477 -0)
(-0.000292773 -0.0203136 -0)
(-0.000328617 -0.0203854 -0)
(-0.000363851 -0.020464 -0)
(-0.000398369 -0.020549 -0)
(-0.000432051 -0.0206395 -0)
(-0.000464769 -0.0207345 -0)
(-0.000496396 -0.0208331 -0)
(-0.000526804 -0.0209344 -0)
(-0.000555865 -0.0210372 -0)
(-0.000583452 -0.0211409 -0)
(-0.000609435 -0.0212447 -0)
(-0.000633685 -0.0213479 -0)
(-0.000656072 -0.0214499 -0)
(-0.000676463 -0.0215505 -0)
(-0.000694722 -0.0216491 -0)
(-0.000710714 -0.0217454 -0)
(-0.0007243 -0.0218394 -0)
(-0.00073534 -0.0219306 -0)
(-0.00074369 -0.0220185 -0)
(-0.000749201 -0.022102 -0)
(-0.00075172 -0.0221786 -0)
(-0.000751092 -0.0222433 -0)
(-0.000747172 -0.0222871 -0)
(-0.000740854 -0.0223369 -0)
(-0.000731767 -0.0223881 -0)
(-0.000719715 -0.0224384 -0)
(-0.000704632 -0.0224879 -0)
(-0.000686485 -0.0225369 -0)
(-0.00066525 -0.0225858 -0)
(-0.000640912 -0.0226347 -0)
(-0.000613468 -0.0226836 -0)
(-0.000582933 -0.0227321 -0)
(-0.000549345 -0.0227797 -0)
(-0.000512774 -0.0228256 -0)
(-3.24377e-05 -0.015501 -0)
(-9.19937e-05 -0.0162855 -0)
(-0.000138329 -0.0166115 -0)
(-0.000178586 -0.0167529 -0)
(-0.000216306 -0.0168281 -0)
(-0.000252927 -0.0168843 -0)
(-0.000288931 -0.0169387 -0)
(-0.000324411 -0.0169966 -0)
(-0.000359313 -0.0170595 -0)
(-0.000393531 -0.0171271 -0)
(-0.000426937 -0.0171985 -0)
(-0.000459397 -0.0172729 -0)
(-0.000490777 -0.0173493 -0)
(-0.00052094 -0.0174267 -0)
(-0.000549751 -0.0175043 -0)
(-0.000577073 -0.0175813 -0)
(-0.000602771 -0.017657 -0)
(-0.000626709 -0.017731 -0)
(-0.000648752 -0.0178027 -0)
(-0.000668763 -0.0178719 -0)
(-0.000686606 -0.0179383 -0)
(-0.000702145 -0.0180017 -0)
(-0.000715242 -0.018062 -0)
(-0.000725757 -0.0181189 -0)
(-0.000733546 -0.0181716 -0)
(-0.000738453 -0.0182187 -0)
(-0.000740303 -0.0182567 -0)
(-0.000738898 -0.0182791 -0)
(-0.000734589 -0.0182923 -0)
(-0.000727969 -0.018314 -0)
(-0.000718558 -0.0183371 -0)
(-0.000706231 -0.0183605 -0)
(-0.000690954 -0.0183844 -0)
(-0.000672712 -0.0184095 -0)
(-0.000651496 -0.018436 -0)
(-0.000627305 -0.0184642 -0)
(-0.000600145 -0.018494 -0)
(-0.000570032 -0.0185252 -0)
(-0.000537002 -0.0185571 -0)
(-0.000501114 -0.018589 -0)
(-3.05449e-05 -0.0126346 -0)
(-8.80816e-05 -0.0134816 -0)
(-0.000133406 -0.0138338 -0)
(-0.000172748 -0.0139827 -0)
(-0.000209506 -0.0140559 -0)
(-0.000245132 -0.0141049 -0)
(-0.000280137 -0.0141488 -0)
(-0.000314632 -0.0141941 -0)
(-0.000348572 -0.0142424 -0)
(-0.000381852 -0.0142937 -0)
(-0.000414342 -0.0143474 -0)
(-0.000445906 -0.0144026 -0)
(-0.000476401 -0.0144583 -0)
(-0.000505688 -0.0145138 -0)
(-0.000533625 -0.0145682 -0)
(-0.000560071 -0.0146208 -0)
(-0.000584887 -0.0146713 -0)
(-0.000607936 -0.014719 -0)
(-0.00062908 -0.0147638 -0)
(-0.000648186 -0.0148053 -0)
(-0.000665119 -0.0148435 -0)
(-0.000679748 -0.0148783 -0)
(-0.000691938 -0.0149095 -0)
(-0.000701555 -0.0149368 -0)
(-0.000708455 -0.0149593 -0)
(-0.000712475 -0.0149751 -0)
(-0.000713423 -0.0149805 -0)
(-0.000711058 -0.0149681 -0)
(-0.000706568 -0.0149633 -0)
(-0.000699639 -0.0149635 -0)
(-0.000690009 -0.0149654 -0)
(-0.000677604 -0.0149688 -0)
(-0.000662415 -0.0149742 -0)
(-0.000644446 -0.0149821 -0)
(-0.0006237 -0.0149928 -0)
(-0.000600187 -0.0150065 -0)
(-0.000573922 -0.0150234 -0)
(-0.000544922 -0.0150432 -0)
(-0.000513211 -0.0150652 -0)
(-0.000478832 -0.0150884 -0)
(-2.81141e-05 -0.0102661 -0)
(-8.2768e-05 -0.0111563 -0)
(-0.000126595 -0.0115299 -0)
(-0.000164649 -0.0116858 -0)
(-0.000200082 -0.0117579 -0)
(-0.000234331 -0.0118008 -0)
(-0.000267929 -0.0118355 -0)
(-0.000301012 -0.0118694 -0)
(-0.000333547 -0.0119045 -0)
(-0.000365434 -0.0119411 -0)
(-0.000396545 -0.0119787 -0)
(-0.000426742 -0.0120164 -0)
(-0.000455881 -0.0120536 -0)
(-0.00048382 -0.0120895 -0)
(-0.000510414 -0.0121233 -0)
(-0.000535523 -0.0121547 -0)
(-0.000559007 -0.012183 -0)
(-0.00058073 -0.0122081 -0)
(-0.000600559 -0.0122298 -0)
(-0.000618366 -0.0122479 -0)
(-0.000634023 -0.0122625 -0)
(-0.000647407 -0.0122734 -0)
(-0.000658391 -0.0122806 -0)
(-0.000666846 -0.0122836 -0)
(-0.000672631 -0.0122815 -0)
(-0.000675591 -0.0122723 -0)
(-0.000675557 -0.0122527 -0)
(-0.000672419 -0.0122195 -0)
(-0.000667608 -0.0122001 -0)
(-0.000660431 -0.012185 -0)
(-0.000650716 -0.0121724 -0)
(-0.000638429 -0.0121623 -0)
(-0.000623584 -0.0121553 -0)
(-0.000606199 -0.012152 -0)
(-0.00058629 -0.0121526 -0)
(-0.000563875 -0.0121574 -0)
(-0.000538975 -0.0121666 -0)
(-0.000511605 -0.0121798 -0)
(-0.000481776 -0.0121966 -0)
(-0.000449509 -0.0122159 -0)
(-2.53545e-05 -0.00830743 -0)
(-7.65171e-05 -0.00922149 -0)
(-0.000118496 -0.00961111 -0)
(-0.000155015 -0.00977346 -0)
(-0.000188893 -0.00984515 -0)
(-0.000221518 -0.00988324 -0)
(-0.000253445 -0.00991009 -0)
(-0.000284829 -0.00993393 -0)
(-0.000315656 -0.00995741 -0)
(-0.000345834 -0.009981 -0)
(-0.000375239 -0.0100044 -0)
(-0.000403735 -0.0100269 -0)
(-0.000431179 -0.0100479 -0)
(-0.000457428 -0.0100668 -0)
(-0.000482342 -0.0100831 -0)
(-0.00050578 -0.0100963 -0)
(-0.000527608 -0.0101062 -0)
(-0.000547696 -0.0101125 -0)
(-0.000565918 -0.0101152 -0)
(-0.000582155 -0.0101143 -0)
(-0.00059629 -0.0101099 -0)
(-0.000608211 -0.0101019 -0)
(-0.000617802 -0.0100903 -0)
(-0.000624939 -0.0100745 -0)
(-0.000629482 -0.0100534 -0)
(-0.000631245 -0.0100246 -0)
(-0.00062993 -0.00998276 -0)
(-0.000626572 -0.00994414 -0)
(-0.000621461 -0.00991521 -0)
(-0.000614149 -0.00989071 -0)
(-0.000604512 -0.00986936 -0)
(-0.000592546 -0.00985139 -0)
(-0.000578281 -0.00983738 -0)
(-0.000561747 -0.00982786 -0)
(-0.000542966 -0.00982304 -0)
(-0.000521962 -0.00982318 -0)
(-0.000498765 -0.00982856 -0)
(-0.000473386 -0.00983905 -0)
(-0.000445827 -0.00985419 -0)
(-0.000416074 -0.00987277 -0)
(-2.24371e-05 -0.00668617 -0)
(-6.97036e-05 -0.00760553 -0)
(-0.000109574 -0.00800574 -0)
(-0.000144388 -0.00817374 -0)
(-0.000176565 -0.00824575 -0)
(-0.000207417 -0.00828017 -0)
(-0.000237504 -0.00830054 -0)
(-0.000267006 -0.00831592 -0)
(-0.000295926 -0.00832944 -0)
(-0.000324182 -0.00834187 -0)
(-0.000351658 -0.00835309 -0)
(-0.000378223 -0.00836267 -0)
(-0.000403739 -0.00837007 -0)
(-0.000428065 -0.00837482 -0)
(-0.000451067 -0.00837654 -0)
(-0.00047261 -0.00837493 -0)
(-0.000492567 -0.00836982 -0)
(-0.000510818 -0.00836116 -0)
(-0.000527249 -0.00834899 -0)
(-0.000541754 -0.00833341 -0)
(-0.00055423 -0.00831454 -0)
(-0.000564578 -0.00829243 -0)
(-0.000572693 -0.00826695 -0)
(-0.000578463 -0.00823761 -0)
(-0.000581747 -0.00820321 -0)
(-0.000582362 -0.00816145 -0)
(-0.000580045 -0.00810806 -0)
(-0.000576447 -0.00806662 -0)
(-0.000571155 -0.008033 -0)
(-0.000563876 -0.00800408 -0)
(-0.000554512 -0.00797887 -0)
(-0.000543076 -0.0079576 -0)
(-0.000529605 -0.00794078 -0)
(-0.00051414 -0.00792888 -0)
(-0.0004967 -0.00792203 -0)
(-0.000477318 -0.00792045 -0)
(-0.000456036 -0.00792466 -0)
(-0.000432863 -0.0079347 -0)
(-0.000407795 -0.00795031 -0)
(-0.00038079 -0.00797026 -0)
(-1.94944e-05 -0.00534279 -0)
(-6.26195e-05 -0.00625068 -0)
(-0.000100179 -0.00665608 -0)
(-0.000133166 -0.00682877 -0)
(-0.00016355 -0.00690172 -0)
(-0.000192537 -0.00693363 -0)
(-0.000220685 -0.00694894 -0)
(-0.000248192 -0.00695741 -0)
(-0.000275079 -0.00696268 -0)
(-0.000301278 -0.00696585 -0)
(-0.000326683 -0.00696703 -0)
(-0.000351169 -0.00696594 -0)
(-0.000374606 -0.00696223 -0)
(-0.000396862 -0.00695557 -0)
(-0.000417807 -0.0069457 -0)
(-0.000437319 -0.00693247 -0)
(-0.000455281 -0.00691582 -0)
(-0.000471586 -0.00689581 -0)
(-0.000486134 -0.00687256 -0)
(-0.000498836 -0.00684628 -0)
(-0.000509607 -0.00681713 -0)
(-0.000518362 -0.00678524 -0)
(-0.000525013 -0.00675048 -0)
(-0.000529455 -0.00671237 -0)
(-0.000531555 -0.00666975 -0)
(-0.000531148 -0.00662066 -0)
(-0.00052815 -0.00656374 -0)
(-0.000524372 -0.0065221 -0)
(-0.000519078 -0.00648783 -0)
(-0.000512041 -0.00645861 -0)
(-0.000503166 -0.00643344 -0)
(-0.000492465 -0.00641242 -0)
(-0.000479975 -0.00639592 -0)
(-0.000465739 -0.00638427 -0)
(-0.000449775 -0.0063775 -0)
(-0.00043212 -0.00637588 -0)
(-0.000412837 -0.00638018 -0)
(-0.000391946 -0.0063907 -0)
(-0.000369442 -0.00640751 -0)
(-0.000345265 -0.00642962 -0)
(-1.6623e-05 -0.0042287 -0)
(-5.54843e-05 -0.00511054 -0)
(-9.05711e-05 -0.00551588 -0)
(-0.000121633 -0.00569216 -0)
(-0.000150163 -0.00576654 -0)
(-0.000177233 -0.00579705 -0)
(-0.000203386 -0.00580865 -0)
(-0.000228835 -0.00581176 -0)
(-0.000253616 -0.00581047 -0)
(-0.00027768 -0.00580623 -0)
(-0.00030093 -0.00579937 -0)
(-0.000323252 -0.00578983 -0)
(-0.000344525 -0.00577741 -0)
(-0.000364628 -0.00576191 -0)
(-0.000383442 -0.00574323 -0)
(-0.000400858 -0.00572132 -0)
(-0.000416773 -0.00569623 -0)
(-0.000431096 -0.00566812 -0)
(-0.000443745 -0.00563721 -0)
(-0.000454649 -0.00560376 -0)
(-0.000463742 -0.00556801 -0)
(-0.000470959 -0.00553013 -0)
(-0.000476228 -0.00549006 -0)
(-0.000479455 -0.00544731 -0)
(-0.000480496 -0.00540062 -0)
(-0.000479006 -0.00534607 -0)
(-0.000475912 -0.00529396 -0)
(-0.000472123 -0.00525499 -0)
(-0.000467046 -0.00522327 -0)
(-0.000460486 -0.00519695 -0)
(-0.000452322 -0.00517477 -0)
(-0.000442548 -0.00515657 -0)
(-0.000431188 -0.00514244 -0)
(-0.000418272 -0.00513248 -0)
(-0.000403821 -0.00512668 -0)
(-0.000387893 -0.0051255 -0)
(-0.000370577 -0.00512998 -0)
(-0.000351909 -0.00514069 -0)
(-0.000331882 -0.00515781 -0)
(-0.000310498 -0.00518187 -0)
(-1.38888e-05 -0.00330427 -0)
(-4.84565e-05 -0.00414778 -0)
(-8.09376e-05 -0.00454814 -0)
(-0.000109989 -0.00472675 -0)
(-0.00013662 -0.0048029 -0)
(-0.000161744 -0.004833 -0)
(-0.000185875 -0.00484218 -0)
(-0.000209235 -0.00484138 -0)
(-0.000231877 -0.00483513 -0)
(-0.000253767 -0.00482521 -0)
(-0.000274822 -0.00481222 -0)
(-0.000294941 -0.00479626 -0)
(-0.000314015 -0.00477731 -0)
(-0.000331934 -0.00475532 -0)
(-0.000348597 -0.00473029 -0)
(-0.000363908 -0.00470231 -0)
(-0.00037778 -0.00467151 -0)
(-0.000390142 -0.00463813 -0)
(-0.000400933 -0.00460248 -0)
(-0.0004101 -0.00456488 -0)
(-0.000417601 -0.00452563 -0)
(-0.00042339 -0.00448495 -0)
(-0.000427414 -0.00444283 -0)
(-0.000429595 -0.00439887 -0)
(-0.000429789 -0.00435185 -0)
(-0.00042749 -0.00429653 -0)
(-0.000424565 -0.00425179 -0)
(-0.000420995 -0.00421786 -0)
(-0.000416377 -0.00419112 -0)
(-0.000410529 -0.00416995 -0)
(-0.000403284 -0.00415273 -0)
(-0.000394602 -0.00413895 -0)
(-0.000384471 -0.00412831 -0)
(-0.000372841 -0.00411996 -0)
(-0.000359809 -0.00411457 -0)
(-0.000345527 -0.00411357 -0)
(-0.000330055 -0.00411756 -0)
(-0.000313461 -0.00412752 -0)
(-0.000295757 -0.00414398 -0)
(-0.000277005 -0.00416854 -0)
(-1.13352e-05 -0.00253756 -0)
(-4.1644e-05 -0.0033322 -0)
(-7.14067e-05 -0.00372303 -0)
(-9.83719e-05 -0.00390275 -0)
(-0.000123063 -0.00398083 -0)
(-0.000146226 -0.00401138 -0)
(-0.000168325 -0.00401931 -0)
(-0.000189589 -0.00401594 -0)
(-0.000210084 -0.0040062 -0)
(-0.000229791 -0.0039922 -0)
(-0.000248644 -0.00397477 -0)
(-0.000266555 -0.00395423 -0)
(-0.00028343 -0.00393069 -0)
(-0.000299175 -0.00390425 -0)
(-0.000313704 -0.00387501 -0)
(-0.000326942 -0.00384319 -0)
(-0.000338819 -0.00380898 -0)
(-0.000349283 -0.00377271 -0)
(-0.000358297 -0.00373475 -0)
(-0.000365831 -0.00369547 -0)
(-0.000371863 -0.00365524 -0)
(-0.000376372 -0.00361431 -0)
(-0.000379325 -0.00357275 -0)
(-0.000380662 -0.00353027 -0)
(-0.000380266 -0.00348589 -0)
(-0.000377631 -0.00343492 -0)
(-0.000374971 -0.0033976 -0)
(-0.000371864 -0.00337039 -0)
(-0.000367954 -0.00335032 -0)
(-0.000362927 -0.00333468 -0)
(-0.000356732 -0.00332307 -0)
(-0.00034928 -0.00331463 -0)
(-0.000340446 -0.00330801 -0)
(-0.000330116 -0.00330176 -0)
(-0.000318417 -0.00329663 -0)
(-0.000305569 -0.00329445 -0)
(-0.000291671 -0.00329609 -0)
(-0.000276864 -0.00330319 -0)
(-0.000261232 -0.00331715 -0)
(-0.000244845 -0.00333985 -0)
(-8.98155e-06 -0.00190108 -0)
(-3.51356e-05 -0.00264068 -0)
(-6.20719e-05 -0.00301693 -0)
(-8.68635e-05 -0.00319595 -0)
(-0.000109585 -0.00327618 -0)
(-0.000130775 -0.00330791 -0)
(-0.000150845 -0.00331561 -0)
(-0.000170019 -0.00331087 -0)
(-0.000188376 -0.00329895 -0)
(-0.000205913 -0.00328229 -0)
(-0.000222579 -0.00326193 -0)
(-0.000238303 -0.00323838 -0)
(-0.000253007 -0.00321193 -0)
(-0.000266614 -0.00318277 -0)
(-0.000279057 -0.00315113 -0)
(-0.000290282 -0.00311733 -0)
(-0.000300239 -0.00308162 -0)
(-0.000308897 -0.00304438 -0)
(-0.000316244 -0.00300604 -0)
(-0.000322272 -0.00296704 -0)
(-0.000326984 -0.00292778 -0)
(-0.000330383 -0.00288858 -0)
(-0.000332459 -0.00284957 -0)
(-0.000333173 -0.00281059 -0)
(-0.000332081 -0.00276792 -0)
(-0.000329673 -0.00272564 -0)
(-0.000327474 -0.00269641 -0)
(-0.00032507 -0.00267695 -0)
(-0.000322108 -0.00266457 -0)
(-0.000318177 -0.00265602 -0)
(-0.000313227 -0.002651 -0)
(-0.000307093 -0.00264812 -0)
(-0.000299552 -0.00264532 -0)
(-0.000290458 -0.00264088 -0)
(-0.000279905 -0.00263501 -0)
(-0.000268146 -0.00262944 -0)
(-0.000255412 -0.00262596 -0)
(-0.000241965 -0.00262709 -0)
(-0.000227998 -0.00263532 -0)
(-0.00021363 -0.00265313 -0)
(-6.83267e-06 -0.00137257 -0)
(-2.89705e-05 -0.00205301 -0)
(-5.3007e-05 -0.00241119 -0)
(-7.55385e-05 -0.00258763 -0)
(-9.62367e-05 -0.00266941 -0)
(-0.000115443 -0.0027028 -0)
(-0.000133496 -0.00271125 -0)
(-0.000150601 -0.00270625 -0)
(-0.000166844 -0.00269335 -0)
(-0.000182235 -0.00267521 -0)
(-0.000196742 -0.00265317 -0)
(-0.000210317 -0.00262797 -0)
(-0.000222895 -0.0026 -0)
(-0.000234421 -0.00256958 -0)
(-0.000244844 -0.00253701 -0)
(-0.000254117 -0.00250254 -0)
(-0.000262228 -0.00246666 -0)
(-0.000269172 -0.00242981 -0)
(-0.000274956 -0.00239245 -0)
(-0.000279597 -0.00235504 -0)
(-0.000283122 -0.00231802 -0)
(-0.000285559 -0.00228176 -0)
(-0.00028692 -0.00224647 -0)
(-0.00028719 -0.00221207 -0)
(-0.000285656 -0.00217309 -0)
(-0.000283914 -0.00214167 -0)
(-0.000282394 -0.00212099 -0)
(-0.00028091 -0.00210975 -0)
(-0.00027912 -0.00210558 -0)
(-0.000276579 -0.00210535 -0)
(-0.000273056 -0.00210747 -0)
(-0.000268273 -0.00210984 -0)
(-0.000261926 -0.00210989 -0)
(-0.000253825 -0.00210556 -0)
(-0.000244046 -0.00209664 -0)
(-0.000232905 -0.00208484 -0)
(-0.000220798 -0.00207284 -0)
(-0.000208163 -0.0020643 -0)
(-0.000195354 -0.00206295 -0)
(-0.000182585 -0.00207223 -0)
(-4.88327e-06 -0.000933697 -0)
(-2.31676e-05 -0.00155286 -0)
(-4.42515e-05 -0.00189019 -0)
(-6.44399e-05 -0.00206227 -0)
(-8.30623e-05 -0.00214497 -0)
(-0.000100266 -0.0021802 -0)
(-0.000116305 -0.00218997 -0)
(-0.000131359 -0.00218554 -0)
(-0.000145515 -0.00217262 -0)
(-0.000158794 -0.00215405 -0)
(-0.000171183 -0.00213142 -0)
(-0.000182651 -0.00210565 -0)
(-0.000193155 -0.00207725 -0)
(-0.000202655 -0.00204664 -0)
(-0.000211122 -0.00201421 -0)
(-0.000218525 -0.00198023 -0)
(-0.000224881 -0.00194528 -0)
(-0.000230208 -0.00190987 -0)
(-0.000234537 -0.00187448 -0)
(-0.00023791 -0.0018396 -0)
(-0.000240379 -0.0018057 -0)
(-0.000241996 -0.00177321 -0)
(-0.000242797 -0.00174238 -0)
(-0.000242793 -0.00171325 -0)
(-0.000241469 -0.00168216 -0)
(-0.000240474 -0.00166055 -0)
(-0.000239875 -0.00164881 -0)
(-0.000239542 -0.00164611 -0)
(-0.000239125 -0.00165028 -0)
(-0.000238119 -0.00165814 -0)
(-0.000236098 -0.00166696 -0)
(-0.000232619 -0.00167368 -0)
(-0.000227264 -0.00167504 -0)
(-0.000219787 -0.00166852 -0)
(-0.000210268 -0.00165357 -0)
(-0.000199122 -0.00163202 -0)
(-0.000186957 -0.00160749 -0)
(-0.000174453 -0.00158493 -0)
(-0.00016219 -0.00156958 -0)
(-0.000150531 -0.00156611 -0)
(-3.12157e-06 -0.000569348 -0)
(-1.77303e-05 -0.00112687 -0)
(-3.58299e-05 -0.00144124 -0)
(-5.3598e-05 -0.00160731 -0)
(-7.00869e-05 -0.00169017 -0)
(-8.52609e-05 -0.00172713 -0)
(-9.92842e-05 -0.00173859 -0)
(-0.000112302 -0.00173535 -0)
(-0.000124398 -0.00172313 -0)
(-0.000135602 -0.00170498 -0)
(-0.000145914 -0.00168262 -0)
(-0.000155323 -0.00165713 -0)
(-0.000163803 -0.00162914 -0)
(-0.000171336 -0.00159918 -0)
(-0.000177914 -0.00156771 -0)
(-0.00018353 -0.00153508 -0)
(-0.00018822 -0.00150189 -0)
(-0.000192028 -0.00146869 -0)
(-0.000195011 -0.001436 -0)
(-0.000197236 -0.00140433 -0)
(-0.00019878 -0.0013742 -0)
(-0.000199721 -0.00134606 -0)
(-0.00020012 -0.00132023 -0)
(-0.00019976 -0.00129518 -0)
(-0.000199258 -0.00127486 -0)
(-0.000199222 -0.00126298 -0)
(-0.000199772 -0.00126026 -0)
(-0.000200799 -0.0012661 -0)
(-0.000201921 -0.00127839 -0)
(-0.000202539 -0.00129371 -0)
(-0.000202014 -0.00130826 -0)
(-0.000199691 -0.00131787 -0)
(-0.000194995 -0.00131839 -0)
(-0.000187611 -0.00130672 -0)
(-0.000177651 -0.00128203 -0)
(-0.000165682 -0.00124643 -0)
(-0.000152591 -0.0012046 -0)
(-0.00013938 -0.00116299 -0)
(-0.000126932 -0.00112854 -0)
(-0.000115821 -0.00110744 -0)
(-1.53202e-06 -0.000266991 -0)
(-1.26508e-05 -0.000763945 -0)
(-2.77549e-05 -0.0010539 -0)
(-4.30341e-05 -0.00121249 -0)
(-5.73298e-05 -0.00129464 -0)
(-7.04409e-05 -0.00133308 -0)
(-8.24402e-05 -0.00134636 -0)
(-9.34329e-05 -0.00134471 -0)
(-0.000103492 -0.00133376 -0)
(-0.000112654 -0.00131664 -0)
(-0.000120931 -0.00129521 -0)
(-0.000128327 -0.00127066 -0)
(-0.000134836 -0.00124375 -0)
(-0.000140461 -0.00121508 -0)
(-0.000145215 -0.00118519 -0)
(-0.000149117 -0.0011545 -0)
(-0.000152221 -0.00112362 -0)
(-0.000154598 -0.00109313 -0)
(-0.000156328 -0.00106358 -0)
(-0.000157506 -0.00103551 -0)
(-0.000158235 -0.00100947 -0)
(-0.000158616 -0.00098594 -0)
(-0.000158744 -0.000965318 -0)
(-0.000158422 -0.000946278 -0)
(-0.000158812 -0.000935599 -0)
(-0.000159906 -0.000933032 -0)
(-0.000161805 -0.000939131 -0)
(-0.000164371 -0.000953253 -0)
(-0.000167158 -0.000973139 -0)
(-0.000169425 -0.000994925 -0)
(-0.00017029 -0.00101377 -0)
(-0.000168835 -0.00102423 -0)
(-0.000164286 -0.00102107 -0)
(-0.000156247 -0.00100048 -0)
(-0.000144894 -0.000961449 -0)
(-0.000131027 -0.000906556 -0)
(-0.0001159 -0.000841702 -0)
(-0.000100942 -0.000775078 -0)
(-8.74297e-05 -0.000715586 -0)
(-7.62208e-05 -0.000671185 -0)
(-9.73947e-08 -1.62378e-05 -0)
(-7.91405e-06 -0.000454825 -0)
(-2.00316e-05 -0.000719539 -0)
(-3.27641e-05 -0.00086938 -0)
(-4.48071e-05 -0.00094991 -0)
(-5.58172e-05 -0.000989409 -0)
(-6.57777e-05 -0.00100448 -0)
(-7.47498e-05 -0.00100464 -0)
(-8.27918e-05 -0.000995324 -0)
(-8.99404e-05 -0.000979693 -0)
(-9.62187e-05 -0.000959684 -0)
(-0.000101644 -0.000936568 -0)
(-0.000106231 -0.000911208 -0)
(-0.00011 -0.000884279 -0)
(-0.000112987 -0.000856374 -0)
(-0.000115235 -0.000827998 -0)
(-0.000116819 -0.000799752 -0)
(-0.000117832 -0.000772237 -0)
(-0.000118381 -0.000746029 -0)
(-0.000118587 -0.000721701 -0)
(-0.000118576 -0.000699807 -0)
(-0.000118479 -0.000680863 -0)
(-0.000118321 -0.000664781 -0)
(-0.000118522 -0.000653712 -0)
(-0.000119833 -0.000651522 -0)
(-0.000122183 -0.000657618 -0)
(-0.00012559 -0.000672086 -0)
(-0.00012984 -0.000693989 -0)
(-0.000134363 -0.000720687 -0)
(-0.000138225 -0.000747658 -0)
(-0.000140246 -0.000768883 -0)
(-0.000139188 -0.000777514 -0)
(-0.000134029 -0.000767018 -0)
(-0.000124281 -0.000732776 -0)
(-0.000110245 -0.00067367 -0)
(-9.30495e-05 -0.000592982 -0)
(-7.44477e-05 -0.000498117 -0)
(-5.64263e-05 -0.000399307 -0)
(-4.07715e-05 -0.000307677 -0)
(-2.87091e-05 -0.000233206 -0)
(1.1998e-06 0.000191536 0)
(-3.50112e-06 -0.000191751 -0)
(-1.26595e-05 -0.000430959 -0)
(-2.28004e-05 -0.000570992 -0)
(-3.25346e-05 -0.00064901 -0)
(-4.1402e-05 -0.000689044 -0)
(-4.93026e-05 -0.000705725 -0)
(-5.62517e-05 -0.000707746 -0)
(-6.22881e-05 -0.000700271 -0)
(-6.74463e-05 -0.000686411 -0)
(-7.17558e-05 -0.000668138 -0)
(-7.52464e-05 -0.000646785 -0)
(-7.79491e-05 -0.000623286 -0)
(-7.99041e-05 -0.00059838 -0)
(-8.11665e-05 -0.000572705 -0)
(-8.18036e-05 -0.000546823 -0)
(-8.19105e-05 -0.00052134 -0)
(-8.16033e-05 -0.00049687 -0)
(-8.10137e-05 -0.000474007 -0)
(-8.02868e-05 -0.000453338 -0)
(-7.95766e-05 -0.000435437 -0)
(-7.90418e-05 -0.000420858 -0)
(-7.86527e-05 -0.000409165 -0)
(-7.96229e-05 -0.000406355 -0)
(-8.19443e-05 -0.000411985 -0)
(-8.56452e-05 -0.000426011 -0)
(-9.06734e-05 -0.000448199 -0)
(-9.66969e-05 -0.000477165 -0)
(-0.000102964 -0.000509656 -0)
(-0.000108263 -0.000540211 -0)
(-0.00011104 -0.000561423 -0)
(-0.000109658 -0.000564803 -0)
(-0.000102792 -0.000542326 -0)
(-8.98656e-05 -0.000488467 -0)
(-7.13759e-05 -0.000402103 -0)
(-4.89288e-05 -0.000287508 -0)
(-2.495e-05 -0.000153963 -0)
(-2.1622e-06 -1.41171e-05 -0)
(1.69919e-05 0.000118362 0)
(3.08187e-05 0.000231221 0)
(2.37636e-06 0.000363488 0)
(6.08974e-07 3.18202e-05 0)
(-5.63526e-06 -0.000182105 -0)
(-1.31543e-05 -0.000311515 -0)
(-2.05292e-05 -0.000386168 -0)
(-2.72108e-05 -0.000426143 -0)
(-3.30248e-05 -0.000444123 -0)
(-3.79408e-05 -0.000447918 -0)
(-4.19754e-05 -0.000442336 -0)
(-4.51566e-05 -0.000430381 -0)
(-4.75178e-05 -0.000414018 -0)
(-4.9098e-05 -0.000394607 -0)
(-4.9943e-05 -0.000373135 -0)
(-5.01099e-05 -0.000350382 -0)
(-4.96727e-05 -0.000327025 -0)
(-4.87206e-05 -0.000303665 -0)
(-4.73687e-05 -0.000280916 -0)
(-4.57544e-05 -0.000259395 -0)
(-4.40327e-05 -0.000239708 -0)
(-4.23734e-05 -0.000222452 -0)
(-4.09557e-05 -0.000208207 -0)
(-3.99254e-05 -0.000197353 -0)
(-3.97747e-05 -0.000191947 -0)
(-4.13872e-05 -0.000195797 -0)
(-4.47338e-05 -0.000208336 -0)
(-4.98327e-05 -0.000229457 -0)
(-5.65436e-05 -0.000258562 -0)
(-6.43709e-05 -0.000293681 -0)
(-7.2301e-05 -0.000330698 -0)
(-7.87419e-05 -0.000362891 -0)
(-8.16509e-05 -0.000381138 -0)
(-7.88855e-05 -0.000374994 -0)
(-6.87498e-05 -0.00033469 -0)
(-5.05905e-05 -0.000253699 -0)
(-2.5211e-05 -0.00013103 -0)
(5.10706e-06 2.76881e-05 0)
(3.70204e-05 0.000210828 0)
(6.68323e-05 0.000402856 0)
(9.12503e-05 0.000587175 0)
(0.000107986 0.000748973 0)
(3.44776e-06 0.000505561 0)
(4.43747e-06 0.000221428 0)
(1.04618e-06 3.21397e-05 0)
(-3.83681e-06 -8.60763e-05 -0)
(-8.81023e-06 -0.000156586 -0)
(-1.32635e-05 -0.000195873 -0)
(-1.69599e-05 -0.000214744 -0)
(-1.98253e-05 -0.000220097 -0)
(-2.18522e-05 -0.000216326 -0)
(-2.30595e-05 -0.000206275 -0)
(-2.34806e-05 -0.00019186 -0)
(-2.31612e-05 -0.000174439 -0)
(-2.21588e-05 -0.000155024 -0)
(-2.05453e-05 -0.000134425 -0)
(-1.84114e-05 -0.000113341 -0)
(-1.58658e-05 -9.23986e-05 -0)
(-1.30425e-05 -7.22181e-05 -0)
(-1.00989e-05 -5.34166e-05 -0)
(-7.21164e-06 -3.66001e-05 -0)
(-4.5745e-06 -2.23709e-05 -0)
(-2.39284e-06 -1.13224e-05 -0)
(-8.09195e-07 -3.71994e-06 -0)
(-1.1044e-06 -4.95258e-06 -0)
(-3.37253e-06 -1.48139e-05 -0)
(-7.74549e-06 -3.34657e-05 -0)
(-1.42518e-05 -6.08323e-05 -0)
(-2.2653e-05 -9.59521e-05 -0)
(-3.22396e-05 -0.000136147 -0)
(-4.16394e-05 -0.00017617 -0)
(-4.87415e-05 -0.000207655 -0)
(-5.08557e-05 -0.00021933 -0)
(-4.51857e-05 -0.000198365 -0)
(-2.9575e-05 -0.000132916 -0)