/*--------------------------------*- C++ -*----------------------------------*\
  =========                 |
  \\      /  F ield         | OpenFOAM: The Open Source CFD Toolbox
   \\    /   O peration     | Website:  https://openfoam.org
    \\  /    A nd           | Version:  6
     \\/     M anipulation  |
\*---------------------------------------------------------------------------*/
FoamFile
{
    version     2.0;
    format      ascii;
    class       volScalarField;
    location    "80";
    object      p;
}
// * * * * * * * * * * * * * * * * * * * * * * * * * * * * * * * * * * * * * //

dimensions      [0 2 -2 0 0 0 0];

internalField   nonuniform List<scalar> 
8800
(
2.75844e-11
3.82056e-07
6.3558e-07
7.60976e-07
8.37933e-07
8.99961e-07
9.58824e-07
1.01952e-06
1.08443e-06
1.15476e-06
1.23123e-06
1.31436e-06
1.40468e-06
1.50275e-06
1.6092e-06
1.72476e-06
1.85019e-06
1.98633e-06
2.13404e-06
2.29416e-06
2.46751e-06
2.65483e-06
2.85675e-06
3.07375e-06
3.30614e-06
3.55403e-06
3.81734e-06
4.09579e-06
4.38893e-06
4.69613e-06
5.01667e-06
5.34985e-06
5.69412e-06
6.04651e-06
6.40423e-06
6.7643e-06
7.12334e-06
7.47769e-06
7.82344e-06
8.15654e-06
-1.63391e-05
-1.65549e-05
-1.66519e-05
-1.66782e-05
-1.669e-05
-1.66997e-05
-1.67092e-05
-1.67187e-05
-1.67277e-05
-1.6736e-05
-1.67427e-05
-1.67472e-05
-1.67489e-05
-1.67468e-05
-1.67401e-05
-1.67276e-05
-1.67083e-05
-1.66809e-05
-1.66443e-05
-1.6597e-05
-1.6538e-05
-1.6466e-05
-1.63799e-05
-1.62787e-05
-1.61616e-05
-1.60279e-05
-1.58771e-05
-1.5709e-05
-1.55236e-05
-1.53206e-05
-1.51006e-05
-1.48649e-05
-1.46149e-05
-1.43518e-05
-1.40776e-05
-1.3795e-05
-1.3507e-05
-1.32169e-05
-1.29279e-05
-1.26438e-05
-2.87187e-05
-2.88558e-05
-2.89288e-05
-2.89679e-05
-2.90027e-05
-2.90377e-05
-2.90739e-05
-2.91123e-05
-2.91531e-05
-2.91961e-05
-2.92406e-05
-2.92861e-05
-2.93317e-05
-2.93763e-05
-2.94188e-05
-2.9458e-05
-2.94926e-05
-2.95212e-05
-2.95424e-05
-2.95547e-05
-2.95568e-05
-2.95472e-05
-2.95247e-05
-2.94882e-05
-2.94366e-05
-2.93691e-05
-2.92851e-05
-2.91842e-05
-2.90661e-05
-2.89308e-05
-2.87787e-05
-2.86107e-05
-2.84279e-05
-2.82317e-05
-2.80242e-05
-2.78079e-05
-2.75855e-05
-2.73601e-05
-2.71349e-05
-2.69131e-05
-3.81443e-05
-3.82014e-05
-3.82381e-05
-3.82761e-05
-3.83235e-05
-3.83782e-05
-3.84391e-05
-3.85063e-05
-3.85794e-05
-3.86579e-05
-3.87412e-05
-3.88283e-05
-3.89182e-05
-3.90098e-05
-3.91018e-05
-3.91926e-05
-3.92809e-05
-3.9365e-05
-3.94432e-05
-3.95139e-05
-3.95755e-05
-3.96263e-05
-3.96649e-05
-3.96897e-05
-3.96996e-05
-3.96934e-05
-3.96704e-05
-3.96298e-05
-3.95712e-05
-3.94938e-05
-3.93971e-05
-3.92816e-05
-3.91486e-05
-3.90002e-05
-3.88386e-05
-3.86665e-05
-3.84865e-05
-3.83016e-05
-3.81149e-05
-3.79295e-05
-4.60176e-05
-4.60836e-05
-4.61329e-05
-4.61859e-05
-4.62514e-05
-4.63283e-05
-4.64157e-05
-4.6513e-05
-4.66195e-05
-4.67346e-05
-4.68571e-05
-4.6986e-05
-4.71201e-05
-4.72579e-05
-4.7398e-05
-4.75386e-05
-4.7678e-05
-4.78143e-05
-4.79457e-05
-4.80701e-05
-4.81858e-05
-4.82908e-05
-4.83833e-05
-4.84616e-05
-4.85244e-05
-4.85702e-05
-4.85981e-05
-4.86072e-05
-4.85962e-05
-4.85635e-05
-4.8508e-05
-4.84307e-05
-4.83336e-05
-4.82191e-05
-4.80896e-05
-4.79478e-05
-4.77964e-05
-4.76384e-05
-4.74767e-05
-4.73144e-05
-5.26351e-05
-5.2718e-05
-5.27815e-05
-5.28471e-05
-5.29269e-05
-5.30211e-05
-5.3129e-05
-5.32501e-05
-5.33833e-05
-5.35277e-05
-5.36821e-05
-5.3845e-05
-5.4015e-05
-5.41904e-05
-5.43694e-05
-5.45502e-05
-5.47307e-05
-5.49087e-05
-5.50822e-05
-5.52489e-05
-5.54067e-05
-5.55535e-05
-5.56873e-05
-5.58062e-05
-5.59086e-05
-5.59931e-05
-5.60584e-05
-5.61034e-05
-5.61257e-05
-5.61227e-05
-5.60948e-05
-5.60438e-05
-5.59717e-05
-5.5881e-05
-5.57741e-05
-5.56539e-05
-5.55232e-05
-5.53851e-05
-5.52423e-05
-5.50978e-05
-5.81721e-05
-5.82605e-05
-5.83306e-05
-5.84047e-05
-5.84954e-05
-5.86033e-05
-5.87278e-05
-5.88681e-05
-5.90232e-05
-5.91917e-05
-5.93722e-05
-5.95631e-05
-5.97626e-05
-5.99689e-05
-6.01797e-05
-6.03931e-05
-6.06066e-05
-6.08179e-05
-6.10246e-05
-6.12244e-05
-6.14148e-05
-6.15936e-05
-6.17586e-05
-6.19077e-05
-6.20392e-05
-6.21515e-05
-6.22433e-05
-6.23126e-05
-6.23555e-05
-6.23704e-05
-6.23593e-05
-6.23241e-05
-6.22669e-05
-6.21902e-05
-6.20967e-05
-6.19895e-05
-6.18714e-05
-6.17456e-05
-6.16147e-05
-6.14817e-05
-6.28206e-05
-6.29088e-05
-6.29826e-05
-6.30634e-05
-6.31632e-05
-6.32824e-05
-6.34205e-05
-6.35767e-05
-6.37497e-05
-6.39379e-05
-6.41397e-05
-6.43533e-05
-6.45765e-05
-6.48072e-05
-6.50432e-05
-6.52819e-05
-6.55208e-05
-6.57574e-05
-6.59891e-05
-6.62132e-05
-6.64273e-05
-6.66288e-05
-6.68155e-05
-6.69852e-05
-6.71359e-05
-6.72662e-05
-6.73743e-05
-6.74567e-05
-6.75093e-05
-6.75329e-05
-6.75297e-05
-6.75016e-05
-6.74508e-05
-6.738e-05
-6.72923e-05
-6.71908e-05
-6.70787e-05
-6.69589e-05
-6.68342e-05
-6.67073e-05
-6.67417e-05
-6.68272e-05
-6.69031e-05
-6.69889e-05
-6.70958e-05
-6.72238e-05
-6.73725e-05
-6.75409e-05
-6.77276e-05
-6.79309e-05
-6.81489e-05
-6.83794e-05
-6.86202e-05
-6.88689e-05
-6.91229e-05
-6.93796e-05
-6.96363e-05
-6.98902e-05
-7.01386e-05
-7.03786e-05
-7.06077e-05
-7.08232e-05
-7.10228e-05
-7.12042e-05
-7.13654e-05
-7.15048e-05
-7.16201e-05
-7.17061e-05
-7.17604e-05
-7.17856e-05
-7.17834e-05
-7.17556e-05
-7.17047e-05
-7.16338e-05
-7.15461e-05
-7.14451e-05
-7.1334e-05
-7.12157e-05
-7.10931e-05
-7.09686e-05
-7.00614e-05
-7.01418e-05
-7.0218e-05
-7.03073e-05
-7.0419e-05
-7.05533e-05
-7.07095e-05
-7.08865e-05
-7.10829e-05
-7.12966e-05
-7.15256e-05
-7.17676e-05
-7.20201e-05
-7.22805e-05
-7.25461e-05
-7.2814e-05
-7.30813e-05
-7.33453e-05
-7.36029e-05
-7.38514e-05
-7.4088e-05
-7.431e-05
-7.4515e-05
-7.47007e-05
-7.48651e-05
-7.50064e-05
-7.51212e-05
-7.52043e-05
-7.5255e-05
-7.52764e-05
-7.527e-05
-7.52376e-05
-7.51821e-05
-7.51067e-05
-7.5015e-05
-7.49107e-05
-7.4797e-05
-7.46772e-05
-7.45538e-05
-7.44291e-05
-7.28797e-05
-7.29527e-05
-7.30277e-05
-7.31186e-05
-7.32331e-05
-7.33712e-05
-7.3532e-05
-7.37143e-05
-7.39165e-05
-7.41364e-05
-7.43718e-05
-7.46203e-05
-7.48792e-05
-7.51457e-05
-7.54169e-05
-7.569e-05
-7.59618e-05
-7.62296e-05
-7.64902e-05
-7.67408e-05
-7.69787e-05
-7.72011e-05
-7.74056e-05
-7.75899e-05
-7.7752e-05
-7.78899e-05
-7.79983e-05
-7.80736e-05
-7.81175e-05
-7.81317e-05
-7.81176e-05
-7.80775e-05
-7.80143e-05
-7.79317e-05
-7.78333e-05
-7.77232e-05
-7.76048e-05
-7.74813e-05
-7.73553e-05
-7.72288e-05
-7.52761e-05
-7.53403e-05
-7.54125e-05
-7.55035e-05
-7.56189e-05
-7.57585e-05
-7.59212e-05
-7.61058e-05
-7.63103e-05
-7.65327e-05
-7.67704e-05
-7.70209e-05
-7.72814e-05
-7.75491e-05
-7.7821e-05
-7.80941e-05
-7.83653e-05
-7.86316e-05
-7.88901e-05
-7.91379e-05
-7.93721e-05
-7.95902e-05
-7.97897e-05
-7.99682e-05
-8.01238e-05
-8.02542e-05
-8.03531e-05
-8.04184e-05
-8.04531e-05
-8.04579e-05
-8.04343e-05
-8.03847e-05
-8.03124e-05
-8.0221e-05
-8.01146e-05
-7.99974e-05
-7.98731e-05
-7.97448e-05
-7.9615e-05
-7.94857e-05
-7.73146e-05
-7.73688e-05
-7.74371e-05
-7.75266e-05
-7.76411e-05
-7.77802e-05
-7.79426e-05
-7.81267e-05
-7.83306e-05
-7.8552e-05
-7.87884e-05
-7.90372e-05
-7.92954e-05
-7.95602e-05
-7.98286e-05
-8.00975e-05
-8.03639e-05
-8.06248e-05
-8.08771e-05
-8.11182e-05
-8.13452e-05
-8.15555e-05
-8.17467e-05
-8.19166e-05
-8.20631e-05
-8.2183e-05
-8.22706e-05
-8.23252e-05
-8.23496e-05
-8.23442e-05
-8.23104e-05
-8.2251e-05
-8.21691e-05
-8.20687e-05
-8.1954e-05
-8.18294e-05
-8.16989e-05
-8.15654e-05
-8.14313e-05
-8.12986e-05
-7.90467e-05
-7.909e-05
-7.91532e-05
-7.92401e-05
-7.93523e-05
-7.9489e-05
-7.96489e-05
-7.98302e-05
-8.00309e-05
-8.02486e-05
-8.04808e-05
-8.07247e-05
-8.09775e-05
-8.12362e-05
-8.14978e-05
-8.17593e-05
-8.20176e-05
-8.22699e-05
-8.25133e-05
-8.27449e-05
-8.29622e-05
-8.31625e-05
-8.33434e-05
-8.3503e-05
-8.36391e-05
-8.37466e-05
-8.38218e-05
-8.38658e-05
-8.38801e-05
-8.38646e-05
-8.38212e-05
-8.37525e-05
-8.36621e-05
-8.35534e-05
-8.3431e-05
-8.32997e-05
-8.31633e-05
-8.30248e-05
-8.28863e-05
-8.27497e-05
-8.05143e-05
-8.05463e-05
-8.06035e-05
-8.06864e-05
-8.0795e-05
-8.09279e-05
-8.10836e-05
-8.12603e-05
-8.14557e-05
-8.16674e-05
-8.1893e-05
-8.21296e-05
-8.23743e-05
-8.26244e-05
-8.28767e-05
-8.31284e-05
-8.33765e-05
-8.36181e-05
-8.38505e-05
-8.40709e-05
-8.42768e-05
-8.44657e-05
-8.46353e-05
-8.47836e-05
-8.49082e-05
-8.50031e-05
-8.50661e-05
-8.51003e-05
-8.51054e-05
-8.5081e-05
-8.50292e-05
-8.49531e-05
-8.4856e-05
-8.47414e-05
-8.46129e-05
-8.44753e-05
-8.43333e-05
-8.41898e-05
-8.4047e-05
-8.39067e-05
-8.17519e-05
-8.1773e-05
-8.18231e-05
-8.19009e-05
-8.20046e-05
-8.21325e-05
-8.22826e-05
-8.2453e-05
-8.26415e-05
-8.28456e-05
-8.30626e-05
-8.32901e-05
-8.3525e-05
-8.37646e-05
-8.4006e-05
-8.42462e-05
-8.44824e-05
-8.47119e-05
-8.4932e-05
-8.51402e-05
-8.53339e-05
-8.55108e-05
-8.56686e-05
-8.58055e-05
-8.59179e-05
-8.60007e-05
-8.60531e-05
-8.60785e-05
-8.60763e-05
-8.60462e-05
-8.59888e-05
-8.59071e-05
-8.58046e-05
-8.56851e-05
-8.55521e-05
-8.54099e-05
-8.52631e-05
-8.51151e-05
-8.49683e-05
-8.48242e-05
-8.2788e-05
-8.27993e-05
-8.2842e-05
-8.29136e-05
-8.30111e-05
-8.31326e-05
-8.32761e-05
-8.34391e-05
-8.36193e-05
-8.38144e-05
-8.40216e-05
-8.42386e-05
-8.44624e-05
-8.46903e-05
-8.49195e-05
-8.51472e-05
-8.53706e-05
-8.55872e-05
-8.57945e-05
-8.59899e-05
-8.61712e-05
-8.6336e-05
-8.64825e-05
-8.66088e-05
-8.671e-05
-8.67819e-05
-8.6826e-05
-8.68443e-05
-8.68364e-05
-8.68021e-05
-8.67413e-05
-8.66563e-05
-8.65504e-05
-8.64274e-05
-8.62913e-05
-8.61463e-05
-8.59967e-05
-8.58457e-05
-8.56957e-05
-8.55482e-05
-8.36473e-05
-8.36492e-05
-8.36848e-05
-8.37497e-05
-8.38401e-05
-8.39542e-05
-8.40897e-05
-8.42442e-05
-8.44152e-05
-8.46003e-05
-8.47969e-05
-8.50025e-05
-8.52143e-05
-8.54298e-05
-8.56463e-05
-8.58611e-05
-8.60716e-05
-8.62753e-05
-8.64698e-05
-8.66528e-05
-8.6822e-05
-8.69754e-05
-8.71112e-05
-8.72274e-05
-8.73182e-05
-8.73806e-05
-8.74184e-05
-8.74316e-05
-8.74196e-05
-8.7382e-05
-8.73193e-05
-8.72334e-05
-8.7127e-05
-8.70037e-05
-8.68673e-05
-8.6722e-05
-8.65715e-05
-8.6419e-05
-8.62666e-05
-8.6116e-05
-8.43514e-05
-8.43446e-05
-8.4373e-05
-8.44308e-05
-8.45136e-05
-8.46195e-05
-8.47463e-05
-8.48914e-05
-8.50524e-05
-8.52269e-05
-8.54123e-05
-8.5606e-05
-8.58055e-05
-8.60083e-05
-8.62118e-05
-8.64137e-05
-8.66113e-05
-8.68023e-05
-8.69844e-05
-8.71554e-05
-8.73132e-05
-8.74558e-05
-8.75815e-05
-8.76875e-05
-8.77685e-05
-8.78235e-05
-8.78563e-05
-8.78662e-05
-8.78522e-05
-8.78141e-05
-8.77523e-05
-8.76685e-05
-8.75648e-05
-8.74444e-05
-8.73108e-05
-8.71676e-05
-8.70182e-05
-8.68655e-05
-8.67116e-05
-8.65578e-05
-8.4919e-05
-8.49041e-05
-8.49253e-05
-8.49759e-05
-8.50507e-05
-8.5148e-05
-8.52655e-05
-8.54008e-05
-8.55512e-05
-8.57146e-05
-8.58882e-05
-8.60698e-05
-8.62568e-05
-8.64468e-05
-8.66374e-05
-8.68263e-05
-8.70111e-05
-8.71895e-05
-8.73595e-05
-8.75189e-05
-8.76658e-05
-8.77985e-05
-8.79152e-05
-8.80111e-05
-8.80834e-05
-8.81337e-05
-8.81636e-05
-8.81722e-05
-8.81588e-05
-8.81229e-05
-8.80651e-05
-8.79863e-05
-8.78886e-05
-8.77743e-05
-8.76464e-05
-8.75079e-05
-8.73617e-05
-8.72101e-05
-8.7055e-05
-8.68978e-05
-8.53662e-05
-8.53443e-05
-8.53585e-05
-8.54016e-05
-8.54682e-05
-8.55564e-05
-8.56643e-05
-8.57892e-05
-8.59289e-05
-8.60807e-05
-8.62424e-05
-8.64117e-05
-8.6586e-05
-8.67633e-05
-8.6941e-05
-8.71172e-05
-8.72894e-05
-8.74557e-05
-8.7614e-05
-8.77624e-05
-8.78991e-05
-8.80225e-05
-8.81305e-05
-8.82181e-05
-8.82841e-05
-8.83315e-05
-8.83604e-05
-8.83699e-05
-8.83594e-05
-8.83285e-05
-8.82775e-05
-8.8207e-05
-8.81185e-05
-8.80135e-05
-8.78943e-05
-8.7763e-05
-8.76217e-05
-8.74723e-05
-8.73162e-05
-8.71547e-05
-8.57077e-05
-8.56797e-05
-8.56871e-05
-8.57227e-05
-8.57808e-05
-8.58597e-05
-8.59575e-05
-8.60719e-05
-8.62003e-05
-8.63405e-05
-8.64901e-05
-8.6647e-05
-8.68088e-05
-8.69733e-05
-8.71385e-05
-8.73021e-05
-8.74623e-05
-8.76169e-05
-8.77642e-05
-8.79023e-05
-8.80296e-05
-8.81446e-05
-8.8244e-05
-8.83247e-05
-8.83871e-05
-8.84334e-05
-8.84631e-05
-8.84756e-05
-8.84704e-05
-8.84472e-05
-8.84059e-05
-8.83469e-05
-8.82708e-05
-8.81784e-05
-8.80707e-05
-8.79489e-05
-8.78139e-05
-8.76669e-05
-8.75091e-05
-8.73417e-05
-8.59562e-05
-8.5923e-05
-8.59241e-05
-8.59523e-05
-8.60017e-05
-8.60711e-05
-8.61586e-05
-8.6262e-05
-8.63791e-05
-8.65074e-05
-8.66449e-05
-8.67893e-05
-8.69386e-05
-8.70907e-05
-8.72436e-05
-8.73952e-05
-8.75437e-05
-8.76873e-05
-8.78241e-05
-8.79527e-05
-8.80714e-05
-8.81787e-05
-8.82705e-05
-8.83456e-05
-8.84064e-05
-8.84532e-05
-8.84856e-05
-8.8503e-05
-8.85054e-05
-8.84923e-05
-8.84636e-05
-8.84191e-05
-8.83586e-05
-8.82817e-05
-8.81881e-05
-8.80774e-05
-8.79494e-05
-8.78042e-05
-8.76427e-05
-8.74662e-05
-8.61232e-05
-8.60859e-05
-8.60811e-05
-8.6102e-05
-8.61428e-05
-8.62025e-05
-8.62795e-05
-8.63718e-05
-8.64772e-05
-8.65936e-05
-8.67189e-05
-8.6851e-05
-8.69879e-05
-8.71278e-05
-8.72686e-05
-8.74087e-05
-8.7546e-05
-8.76791e-05
-8.78062e-05
-8.79258e-05
-8.80366e-05
-8.81361e-05
-8.82219e-05
-8.82939e-05
-8.83542e-05
-8.84027e-05
-8.84391e-05
-8.84633e-05
-8.84752e-05
-8.84746e-05
-8.84611e-05
-8.84339e-05
-8.83918e-05
-8.8333e-05
-8.82553e-05
-8.81567e-05
-8.8035e-05
-8.78894e-05
-8.77202e-05
-8.75291e-05
-8.62189e-05
-8.61786e-05
-8.61685e-05
-8.61824e-05
-8.62147e-05
-8.62647e-05
-8.63311e-05
-8.64121e-05
-8.65058e-05
-8.661e-05
-8.6723e-05
-8.68428e-05
-8.69676e-05
-8.70954e-05
-8.72246e-05
-8.73534e-05
-8.74802e-05
-8.76033e-05
-8.77212e-05
-8.78326e-05
-8.7936e-05
-8.80283e-05
-8.8109e-05
-8.81795e-05
-8.82404e-05
-8.82917e-05
-8.83333e-05
-8.83656e-05
-8.83887e-05
-8.84025e-05
-8.84064e-05
-8.83989e-05
-8.83776e-05
-8.83387e-05
-8.82779e-05
-8.81906e-05
-8.80728e-05
-8.7922e-05
-8.7738e-05
-8.75232e-05
-8.62528e-05
-8.62102e-05
-8.61955e-05
-8.62028e-05
-8.62268e-05
-8.62672e-05
-8.6323e-05
-8.63926e-05
-8.64744e-05
-8.65665e-05
-8.66672e-05
-8.67747e-05
-8.68874e-05
-8.70034e-05
-8.71213e-05
-8.72392e-05
-8.73558e-05
-8.74694e-05
-8.75787e-05
-8.76823e-05
-8.7778e-05
-8.78647e-05
-8.79421e-05
-8.80117e-05
-8.80737e-05
-8.81283e-05
-8.8176e-05
-8.82173e-05
-8.82528e-05
-8.82825e-05
-8.83055e-05
-8.83195e-05
-8.83204e-05
-8.83022e-05
-8.82576e-05
-8.81789e-05
-8.80593e-05
-8.78948e-05
-8.76846e-05
-8.74322e-05
-8.62329e-05
-8.61891e-05
-8.61704e-05
-8.61716e-05
-8.61877e-05
-8.62187e-05
-8.62639e-05
-8.63222e-05
-8.6392e-05
-8.64719e-05
-8.65602e-05
-8.66555e-05
-8.67562e-05
-8.68606e-05
-8.69674e-05
-8.70748e-05
-8.71815e-05
-8.72861e-05
-8.73871e-05
-8.7483e-05
-8.75721e-05
-8.76538e-05
-8.7729e-05
-8.77981e-05
-8.78614e-05
-8.79195e-05
-8.79734e-05
-8.80242e-05
-8.80726e-05
-8.8119e-05
-8.8162e-05
-8.81983e-05
-8.82218e-05
-8.82233e-05
-8.81918e-05
-8.81156e-05
-8.79847e-05
-8.77927e-05
-8.75386e-05
-8.72275e-05
-8.6167e-05
-8.61227e-05
-8.61007e-05
-8.60963e-05
-8.61049e-05
-8.61268e-05
-8.61617e-05
-8.62086e-05
-8.62665e-05
-8.63341e-05
-8.64101e-05
-8.64931e-05
-8.65819e-05
-8.66749e-05
-8.67707e-05
-8.6868e-05
-8.69652e-05
-8.70611e-05
-8.71541e-05
-8.72424e-05
-8.73259e-05
-8.74038e-05
-8.74769e-05
-8.75453e-05
-8.76097e-05
-8.7671e-05
-8.77308e-05
-8.77907e-05
-8.78519e-05
-8.79148e-05
-8.79777e-05
-8.80358e-05
-8.80804e-05
-8.80982e-05
-8.80734e-05
-8.79891e-05
-8.7831e-05
-8.75904e-05
-8.72662e-05
-8.6866e-05
-8.60616e-05
-8.60176e-05
-8.59929e-05
-8.59835e-05
-8.59852e-05
-8.59984e-05
-8.60231e-05
-8.60589e-05
-8.61048e-05
-8.61602e-05
-8.62238e-05
-8.62947e-05
-8.63716e-05
-8.64533e-05
-8.65385e-05
-8.66257e-05
-8.67137e-05
-8.68009e-05
-8.68859e-05
-8.69682e-05
-8.70466e-05
-8.71211e-05
-8.71918e-05
-8.72591e-05
-8.73238e-05
-8.73875e-05
-8.74522e-05
-8.752e-05
-8.75928e-05
-8.7671e-05
-8.77523e-05
-8.78299e-05
-8.78916e-05
-8.79189e-05
-8.78896e-05
-8.77801e-05
-8.75709e-05
-8.72504e-05
-8.6818e-05
-8.62851e-05
-8.59227e-05
-8.58796e-05
-8.5853e-05
-8.58392e-05
-8.58345e-05
-8.58394e-05
-8.58544e-05
-8.58791e-05
-8.59134e-05
-8.59565e-05
-8.60078e-05
-8.60665e-05
-8.61317e-05
-8.62022e-05
-8.62768e-05
-8.63542e-05
-8.6433e-05
-8.65117e-05
-8.659e-05
-8.66667e-05
-8.67406e-05
-8.68114e-05
-8.68791e-05
-8.69444e-05
-8.70083e-05
-8.70729e-05
-8.71407e-05
-8.72144e-05
-8.72965e-05
-8.73872e-05
-8.74835e-05
-8.75758e-05
-8.76473e-05
-8.76728e-05
-8.76213e-05
-8.7461e-05
-8.71652e-05
-8.67186e-05
-8.61223e-05
-8.53917e-05
-8.57556e-05
-8.57141e-05
-8.56862e-05
-8.56687e-05
-8.56581e-05
-8.56553e-05
-8.56608e-05
-8.56748e-05
-8.56974e-05
-8.57284e-05
-8.57675e-05
-8.58141e-05
-8.58676e-05
-8.59269e-05
-8.59911e-05
-8.60588e-05
-8.61286e-05
-8.62002e-05
-8.62727e-05
-8.6344e-05
-8.64131e-05
-8.64796e-05
-8.65436e-05
-8.66056e-05
-8.66671e-05
-8.67304e-05
-8.67987e-05
-8.68753e-05
-8.69629e-05
-8.70618e-05
-8.71672e-05
-8.72664e-05
-8.73361e-05
-8.73423e-05
-8.72428e-05
-8.69946e-05
-8.65619e-05
-8.59247e-05
-8.50891e-05
-8.40715e-05
-8.55653e-05
-8.55258e-05
-8.54972e-05
-8.54765e-05
-8.54606e-05
-8.54505e-05
-8.5447e-05
-8.54506e-05
-8.54618e-05
-8.54808e-05
-8.55077e-05
-8.55422e-05
-8.55841e-05
-8.56324e-05
-8.56861e-05
-8.57442e-05
-8.58066e-05
-8.58725e-05
-8.59392e-05
-8.6005e-05
-8.6069e-05
-8.61304e-05
-8.61894e-05
-8.62465e-05
-8.63034e-05
-8.63627e-05
-8.6428e-05
-8.65032e-05
-8.65912e-05
-8.66917e-05
-8.67978e-05
-8.68921e-05
-8.69431e-05
-8.69049e-05
-8.67207e-05
-8.63324e-05
-8.56931e-05
-8.478e-05
-8.35921e-05
-8.21809e-05
-8.5356e-05
-8.5319e-05
-8.52901e-05
-8.52667e-05
-8.5246e-05
-8.52291e-05
-8.52169e-05
-8.52104e-05
-8.52104e-05
-8.52175e-05
-8.52323e-05
-8.52549e-05
-8.52852e-05
-8.53225e-05
-8.5366e-05
-8.54165e-05
-8.54732e-05
-8.55331e-05
-8.55939e-05
-8.56541e-05
-8.57123e-05
-8.57679e-05
-8.58205e-05
-8.58708e-05
-8.59204e-05
-8.59724e-05
-8.60304e-05
-8.60988e-05
-8.61804e-05
-8.62738e-05
-8.63689e-05
-8.64421e-05
-8.64511e-05
-8.63342e-05
-8.60153e-05
-8.54147e-05
-8.44694e-05
-8.31587e-05
-8.14789e-05
-7.952e-05
-8.51315e-05
-8.50973e-05
-8.50686e-05
-8.50429e-05
-8.50179e-05
-8.49945e-05
-8.4974e-05
-8.49576e-05
-8.49466e-05
-8.49421e-05
-8.49449e-05
-8.49555e-05
-8.49742e-05
-8.50008e-05
-8.50368e-05
-8.50817e-05
-8.51324e-05
-8.51862e-05
-8.52411e-05
-8.52954e-05
-8.53474e-05
-8.5396e-05
-8.54408e-05
-8.5482e-05
-8.55215e-05
-8.55621e-05
-8.56079e-05
-8.56631e-05
-8.57299e-05
-8.58051e-05
-8.58743e-05
-8.59053e-05
-8.5842e-05
-8.56025e-05
-8.50839e-05
-8.41797e-05
-8.2814e-05
-8.09274e-05
-7.85633e-05
-7.58431e-05
-8.48955e-05
-8.48644e-05
-8.4836e-05
-8.48083e-05
-8.47793e-05
-8.47498e-05
-8.47213e-05
-8.46953e-05
-8.46735e-05
-8.46573e-05
-8.46481e-05
-8.46467e-05
-8.46546e-05
-8.4674e-05
-8.47046e-05
-8.47434e-05
-8.47878e-05
-8.48356e-05
-8.48848e-05
-8.4933e-05
-8.49783e-05
-8.50189e-05
-8.50541e-05
-8.50841e-05
-8.51102e-05
-8.51354e-05
-8.51634e-05
-8.51981e-05
-8.52405e-05
-8.52844e-05
-8.53097e-05
-8.5273e-05
-8.51004e-05
-8.4683e-05
-8.38828e-05
-8.25589e-05
-8.06064e-05
-7.7951e-05
-7.46355e-05
-7.0879e-05
-8.46513e-05
-8.46234e-05
-8.45955e-05
-8.4566e-05
-8.45331e-05
-8.44977e-05
-8.44614e-05
-8.44259e-05
-8.43934e-05
-8.43656e-05
-8.43445e-05
-8.43332e-05
-8.43341e-05
-8.4348e-05
-8.43721e-05
-8.44045e-05
-8.44431e-05
-8.44855e-05
-8.45292e-05
-8.45714e-05
-8.46093e-05
-8.46411e-05
-8.46652e-05
-8.46816e-05
-8.46912e-05
-8.46966e-05
-8.47011e-05
-8.47077e-05
-8.47153e-05
-8.47139e-05
-8.46752e-05
-8.45421e-05
-8.4218e-05
-8.35593e-05
-8.23807e-05
-8.05114e-05
-7.77639e-05
-7.40857e-05
-6.9522e-05
-6.44142e-05
-8.44022e-05
-8.43773e-05
-8.43501e-05
-8.43187e-05
-8.4282e-05
-8.42407e-05
-8.41967e-05
-8.41518e-05
-8.41086e-05
-8.40697e-05
-8.40398e-05
-8.40219e-05
-8.40172e-05
-8.40242e-05
-8.40418e-05
-8.40687e-05
-8.41025e-05
-8.41403e-05
-8.4179e-05
-8.42151e-05
-8.42456e-05
-8.42676e-05
-8.42793e-05
-8.428e-05
-8.42702e-05
-8.42518e-05
-8.42275e-05
-8.41986e-05
-8.41615e-05
-8.41006e-05
-8.39778e-05
-8.37191e-05
-8.32004e-05
-8.2238e-05
-8.05923e-05
-7.80037e-05
-7.42858e-05
-6.9325e-05
-6.32256e-05
-5.61582e-05
-8.41512e-05
-8.41292e-05
-8.41023e-05
-8.40691e-05
-8.40284e-05
-8.39814e-05
-8.39295e-05
-8.38753e-05
-8.38222e-05
-8.37757e-05
-8.37396e-05
-8.37156e-05
-8.3704e-05
-8.37048e-05
-8.37175e-05
-8.37403e-05
-8.37706e-05
-8.38049e-05
-8.38392e-05
-8.38698e-05
-8.38926e-05
-8.39044e-05
-8.39026e-05
-8.3886e-05
-8.38544e-05
-8.38091e-05
-8.37514e-05
-8.36811e-05
-8.35908e-05
-8.34585e-05
-8.32345e-05
-8.28248e-05
-8.20725e-05
-8.07449e-05
-7.85491e-05
-7.50852e-05
-7.03132e-05
-6.3917e-05
-5.60691e-05
-4.62438e-05
-8.39014e-05
-8.38819e-05
-8.3855e-05
-8.38196e-05
-8.3775e-05
-8.37219e-05
-8.36624e-05
-8.36002e-05
-8.35405e-05
-8.34882e-05
-8.34455e-05
-8.34147e-05
-8.33974e-05
-8.3394e-05
-8.34037e-05
-8.34243e-05
-8.34526e-05
-8.34846e-05
-8.35157e-05
-8.35413e-05
-8.35569e-05
-8.35583e-05
-8.35425e-05
-8.35075e-05
-8.34526e-05
-8.3378e-05
-8.32841e-05
-8.31683e-05
-8.30195e-05
-8.28086e-05
-8.24736e-05
-8.19002e-05
-8.09005e-05
-7.91952e-05
-7.63944e-05
-7.20321e-05
-6.61291e-05
-5.86301e-05
-4.93526e-05
-3.58232e-05
-8.36557e-05
-8.36379e-05
-8.36106e-05
-8.35728e-05
-8.3524e-05
-8.3465e-05
-8.33992e-05
-8.33313e-05
-8.32661e-05
-8.32071e-05
-8.31581e-05
-8.31223e-05
-8.31016e-05
-8.30963e-05
-8.31053e-05
-8.31258e-05
-8.31542e-05
-8.31856e-05
-8.32149e-05
-8.32366e-05
-8.32455e-05
-8.32369e-05
-8.32071e-05
-8.31533e-05
-8.30744e-05
-8.29699e-05
-8.28387e-05
-8.26762e-05
-8.24677e-05
-8.21773e-05
-8.17317e-05
-8.09978e-05
-7.97606e-05
-7.77123e-05
-7.43699e-05
-6.9265e-05
-6.24385e-05
-5.42205e-05
-4.3457e-05
-2.23098e-05
8.47289e-06
8.76838e-06
9.03899e-06
9.28091e-06
9.4906e-06
9.66493e-06
9.80131e-06
9.89782e-06
9.95326e-06
9.97079e-06
9.97079e-06
9.95326e-06
9.89782e-06
9.80131e-06
9.66493e-06
9.4906e-06
9.28091e-06
9.03899e-06
8.76838e-06
8.47289e-06
-1.23683e-05
-1.21051e-05
-1.1858e-05
-1.16304e-05
-1.1426e-05
-1.12477e-05
-1.10986e-05
-1.09809e-05
-1.08972e-05
-1.08512e-05
-1.08512e-05
-1.08972e-05
-1.09809e-05
-1.10986e-05
-1.12477e-05
-1.1426e-05
-1.16304e-05
-1.1858e-05
-1.21051e-05
-1.23683e-05
-2.66981e-05
-2.64933e-05
-2.63019e-05
-2.61273e-05
-2.59725e-05
-2.58403e-05
-2.57332e-05
-2.56532e-05
-2.56027e-05
-2.55829e-05
-2.55829e-05
-2.56027e-05
-2.56532e-05
-2.57332e-05
-2.58403e-05
-2.59725e-05
-2.61273e-05
-2.63019e-05
-2.64933e-05
-2.66981e-05
-3.77487e-05
-3.75756e-05
-3.74134e-05
-3.72652e-05
-3.71341e-05
-3.70226e-05
-3.69332e-05
-3.6868e-05
-3.68296e-05
-3.68188e-05
-3.68188e-05
-3.68296e-05
-3.6868e-05
-3.69332e-05
-3.70226e-05
-3.71341e-05
-3.72652e-05
-3.74134e-05
-3.75756e-05
-3.77487e-05
-4.71545e-05
-4.70001e-05
-4.68541e-05
-4.67196e-05
-4.65993e-05
-4.64961e-05
-4.64123e-05
-4.635e-05
-4.6312e-05
-4.62999e-05
-4.62999e-05
-4.6312e-05
-4.635e-05
-4.64123e-05
-4.64961e-05
-4.65993e-05
-4.67196e-05
-4.68541e-05
-4.70001e-05
-4.71545e-05
-5.49545e-05
-5.48152e-05
-5.46826e-05
-5.45598e-05
-5.44494e-05
-5.43541e-05
-5.42763e-05
-5.42181e-05
-5.41822e-05
-5.41704e-05
-5.41704e-05
-5.41822e-05
-5.42181e-05
-5.42763e-05
-5.43541e-05
-5.44494e-05
-5.45598e-05
-5.46826e-05
-5.48152e-05
-5.49545e-05
-6.13491e-05
-6.12197e-05
-6.1096e-05
-6.09809e-05
-6.08769e-05
-6.07867e-05
-6.07128e-05
-6.06572e-05
-6.06225e-05
-6.06103e-05
-6.06103e-05
-6.06225e-05
-6.06572e-05
-6.07128e-05
-6.07867e-05
-6.08769e-05
-6.09809e-05
-6.1096e-05
-6.12197e-05
-6.13491e-05
-6.65806e-05
-6.64567e-05
-6.63379e-05
-6.62267e-05
-6.61259e-05
-6.6038e-05
-6.59655e-05
-6.59105e-05
-6.58755e-05
-6.58619e-05
-6.58619e-05
-6.58755e-05
-6.59105e-05
-6.59655e-05
-6.6038e-05
-6.61259e-05
-6.62267e-05
-6.63379e-05
-6.64567e-05
-6.65806e-05
-7.08445e-05
-7.0723e-05
-7.06064e-05
-7.0497e-05
-7.03973e-05
-7.03098e-05
-7.02372e-05
-7.01817e-05
-7.01454e-05
-7.013e-05
-7.013e-05
-7.01454e-05
-7.01817e-05
-7.02372e-05
-7.03098e-05
-7.03973e-05
-7.0497e-05
-7.06064e-05
-7.0723e-05
-7.08445e-05
-7.43054e-05
-7.41844e-05
-7.40682e-05
-7.39589e-05
-7.3859e-05
-7.37709e-05
-7.36972e-05
-7.36404e-05
-7.36025e-05
-7.35851e-05
-7.35851e-05
-7.36025e-05
-7.36404e-05
-7.36972e-05
-7.37709e-05
-7.3859e-05
-7.39589e-05
-7.40682e-05
-7.41844e-05
-7.43054e-05
-7.71039e-05
-7.69821e-05
-7.68652e-05
-7.67551e-05
-7.6654e-05
-7.65646e-05
-7.64893e-05
-7.64307e-05
-7.63911e-05
-7.63719e-05
-7.63719e-05
-7.63911e-05
-7.64307e-05
-7.64893e-05
-7.65646e-05
-7.6654e-05
-7.67551e-05
-7.68652e-05
-7.69821e-05
-7.71039e-05
-7.93587e-05
-7.92353e-05
-7.91169e-05
-7.90053e-05
-7.89026e-05
-7.88113e-05
-7.87341e-05
-7.86735e-05
-7.86319e-05
-7.86111e-05
-7.86111e-05
-7.86319e-05
-7.86735e-05
-7.87341e-05
-7.88113e-05
-7.89026e-05
-7.90053e-05
-7.91169e-05
-7.92353e-05
-7.93587e-05
-8.11688e-05
-8.10432e-05
-8.09228e-05
-8.08093e-05
-8.07045e-05
-8.0611e-05
-8.05314e-05
-8.04685e-05
-8.04249e-05
-8.04025e-05
-8.04025e-05
-8.04249e-05
-8.04685e-05
-8.05314e-05
-8.0611e-05
-8.07045e-05
-8.08093e-05
-8.09228e-05
-8.10432e-05
-8.11688e-05
-8.26168e-05
-8.24884e-05
-8.23655e-05
-8.22494e-05
-8.21419e-05
-8.20456e-05
-8.19631e-05
-8.18976e-05
-8.18516e-05
-8.18274e-05
-8.18274e-05
-8.18516e-05
-8.18976e-05
-8.19631e-05
-8.20456e-05
-8.21419e-05
-8.22494e-05
-8.23655e-05
-8.24884e-05
-8.26168e-05
-8.37702e-05
-8.36385e-05
-8.35123e-05
-8.33928e-05
-8.32819e-05
-8.31819e-05
-8.30959e-05
-8.3027e-05
-8.29782e-05
-8.29518e-05
-8.29518e-05
-8.29782e-05
-8.3027e-05
-8.30959e-05
-8.31819e-05
-8.32819e-05
-8.33928e-05
-8.35123e-05
-8.36385e-05
-8.37702e-05
-8.46841e-05
-8.45486e-05
-8.44185e-05
-8.42948e-05
-8.41794e-05
-8.40749e-05
-8.39844e-05
-8.39113e-05
-8.38589e-05
-8.38295e-05
-8.38295e-05
-8.38589e-05
-8.39113e-05
-8.39844e-05
-8.40749e-05
-8.41794e-05
-8.42948e-05
-8.44185e-05
-8.45486e-05
-8.46841e-05
-8.54043e-05
-8.52645e-05
-8.51295e-05
-8.50006e-05
-8.48796e-05
-8.47694e-05
-8.46733e-05
-8.45951e-05
-8.4538e-05
-8.45048e-05
-8.45048e-05
-8.4538e-05
-8.45951e-05
-8.46733e-05
-8.47694e-05
-8.48796e-05
-8.50006e-05
-8.51295e-05
-8.52645e-05
-8.54043e-05
-8.59679e-05
-8.5823e-05
-8.56822e-05
-8.55468e-05
-8.54189e-05
-8.53017e-05
-8.51987e-05
-8.51142e-05
-8.50516e-05
-8.50137e-05
-8.50137e-05
-8.50516e-05
-8.51142e-05
-8.51987e-05
-8.53017e-05
-8.54189e-05
-8.55468e-05
-8.56822e-05
-8.5823e-05
-8.59679e-05
-8.6405e-05
-8.62541e-05
-8.61061e-05
-8.59628e-05
-8.58265e-05
-8.57008e-05
-8.55897e-05
-8.54977e-05
-8.54285e-05
-8.5385e-05
-8.5385e-05
-8.54285e-05
-8.54977e-05
-8.55897e-05
-8.57008e-05
-8.58265e-05
-8.59628e-05
-8.61061e-05
-8.62541e-05
-8.6405e-05
-8.67395e-05
-8.65812e-05
-8.64243e-05
-8.62712e-05
-8.61249e-05
-8.59891e-05
-8.58685e-05
-8.57679e-05
-8.56911e-05
-8.56415e-05
-8.56415e-05
-8.56911e-05
-8.57679e-05
-8.58685e-05
-8.59891e-05
-8.61249e-05
-8.62712e-05
-8.64243e-05
-8.65812e-05
-8.67395e-05
-8.69893e-05
-8.68215e-05
-8.66536e-05
-8.64885e-05
-8.633e-05
-8.61825e-05
-8.60511e-05
-8.59413e-05
-8.58567e-05
-8.58009e-05
-8.58009e-05
-8.58567e-05
-8.59413e-05
-8.60511e-05
-8.61825e-05
-8.633e-05
-8.64885e-05
-8.66536e-05
-8.68215e-05
-8.69893e-05
-8.71667e-05
-8.69864e-05
-8.68042e-05
-8.66241e-05
-8.6451e-05
-8.62905e-05
-8.61478e-05
-8.60287e-05
-8.59368e-05
-8.58752e-05
-8.58752e-05
-8.59368e-05
-8.60287e-05
-8.61478e-05
-8.62905e-05
-8.6451e-05
-8.66241e-05
-8.68042e-05
-8.69864e-05
-8.71667e-05
-8.72774e-05
-8.708e-05
-8.68788e-05
-8.66798e-05
-8.64893e-05
-8.63141e-05
-8.61585e-05
-8.60271e-05
-8.59237e-05
-8.58542e-05
-8.58542e-05
-8.59237e-05
-8.60271e-05
-8.61585e-05
-8.63141e-05
-8.64893e-05
-8.66798e-05
-8.68788e-05
-8.708e-05
-8.72774e-05
-8.73198e-05
-8.70981e-05
-8.68712e-05
-8.66473e-05
-8.64323e-05
-8.62291e-05
-8.6047e-05
-8.58943e-05
-8.5776e-05
-8.56979e-05
-8.56979e-05
-8.5776e-05
-8.58943e-05
-8.6047e-05
-8.62291e-05
-8.64323e-05
-8.66473e-05
-8.68712e-05
-8.70981e-05
-8.73198e-05
-8.72832e-05
-8.70262e-05
-8.67622e-05
-8.64972e-05
-8.62375e-05
-8.59934e-05
-8.57786e-05
-8.5603e-05
-8.54711e-05
-8.53864e-05
-8.53864e-05
-8.54711e-05
-8.5603e-05
-8.57786e-05
-8.59934e-05
-8.62375e-05
-8.64972e-05
-8.67622e-05
-8.70262e-05
-8.72832e-05
-8.71456e-05
-8.68363e-05
-8.65125e-05
-8.61836e-05
-8.58666e-05
-8.55798e-05
-8.53336e-05
-8.51355e-05
-8.49895e-05
-8.48984e-05
-8.48984e-05
-8.49895e-05
-8.51355e-05
-8.53336e-05
-8.55798e-05
-8.58666e-05
-8.61836e-05
-8.65125e-05
-8.68363e-05
-8.71456e-05
-8.68709e-05
-8.64809e-05
-8.60697e-05
-8.56617e-05
-8.52806e-05
-8.49415e-05
-8.46543e-05
-8.44265e-05
-8.42621e-05
-8.4164e-05
-8.4164e-05
-8.42621e-05
-8.44265e-05
-8.46543e-05
-8.49415e-05
-8.52806e-05
-8.56617e-05
-8.60697e-05
-8.64809e-05
-8.68709e-05
-8.64046e-05
-8.58957e-05
-8.53715e-05
-8.48655e-05
-8.43999e-05
-8.399e-05
-8.36467e-05
-8.33782e-05
-8.3189e-05
-8.30813e-05
-8.30813e-05
-8.3189e-05
-8.33782e-05
-8.36467e-05
-8.399e-05
-8.43999e-05
-8.48655e-05
-8.53715e-05
-8.58957e-05
-8.64046e-05
-8.56667e-05
-8.49985e-05
-8.43277e-05
-8.36898e-05
-8.31093e-05
-8.26034e-05
-8.21844e-05
-8.18609e-05
-8.16373e-05
-8.1516e-05
-8.1516e-05
-8.16373e-05
-8.18609e-05
-8.21844e-05
-8.26034e-05
-8.31093e-05
-8.36898e-05
-8.43277e-05
-8.49985e-05
-8.56667e-05
-8.45556e-05
-8.36755e-05
-8.28065e-05
-8.19904e-05
-8.12558e-05
-8.06224e-05
-8.01031e-05
-7.97062e-05
-7.94362e-05
-7.92953e-05
-7.92953e-05
-7.94362e-05
-7.97062e-05
-8.01031e-05
-8.06224e-05
-8.12558e-05
-8.19904e-05
-8.28065e-05
-8.36755e-05
-8.45556e-05
-8.29397e-05
-8.177e-05
-8.06328e-05
-7.95793e-05
-7.86424e-05
-7.78434e-05
-7.71949e-05
-7.6704e-05
-7.63739e-05
-7.6206e-05
-7.6206e-05
-7.63739e-05
-7.6704e-05
-7.71949e-05
-7.78434e-05
-7.86424e-05
-7.95793e-05
-8.06328e-05
-8.177e-05
-8.29397e-05
-8.06394e-05
-7.9074e-05
-7.7579e-05
-7.62164e-05
-7.50215e-05
-7.40146e-05
-7.32066e-05
-7.26009e-05
-7.21978e-05
-7.19964e-05
-7.19964e-05
-7.21978e-05
-7.26009e-05
-7.32066e-05
-7.40146e-05
-7.50215e-05
-7.62164e-05
-7.7579e-05
-7.9074e-05
-8.06394e-05
-7.74152e-05
-7.53202e-05
-7.33596e-05
-7.16076e-05
-7.00967e-05
-6.88396e-05
-6.78436e-05
-6.71057e-05
-6.66199e-05
-6.63809e-05
-6.63809e-05
-6.66199e-05
-6.71057e-05
-6.78436e-05
-6.88396e-05
-7.00967e-05
-7.16076e-05
-7.33596e-05
-7.53202e-05
-7.74152e-05
-7.29739e-05
-7.01961e-05
-6.76479e-05
-6.54057e-05
-6.35115e-05
-6.19688e-05
-6.07673e-05
-5.98895e-05
-5.9319e-05
-5.90435e-05
-5.90435e-05
-5.9319e-05
-5.98895e-05
-6.07673e-05
-6.19688e-05
-6.35115e-05
-6.54057e-05
-6.76479e-05
-7.01961e-05