/*--------------------------------*- C++ -*----------------------------------*\
  =========                 |
  \\      /  F ield         | OpenFOAM: The Open Source CFD Toolbox
   \\    /   O peration     | Website:  https://openfoam.org
    \\  /    A nd           | Version:  6
     \\/     M anipulation  |
\*---------------------------------------------------------------------------*/
FoamFile
{
    version     2.0;
    format      ascii;
    class       volScalarField;
    location    "80";
    object      phii;
}
// * * * * * * * * * * * * * * * * * * * * * * * * * * * * * * * * * * * * * //

dimensions      [1 2 -3 0 0 -1 0];

internalField   nonuniform List<scalar> 
8800
(
12.4977
12.5042
12.5142
12.5271
12.5426
12.5609
12.5818
12.6053
12.6315
12.6601
12.6912
12.7246
12.7602
12.798
12.8378
12.8796
12.9231
12.9683
13.0151
13.0632
13.1126
13.1631
13.2146
13.2668
13.3196
13.3729
13.4263
13.4798
13.5332
13.5861
13.6385
13.69
13.7406
13.7901
13.8381
13.8846
13.9293
13.972
14.0124
14.0503
36.1442
36.1605
36.1884
36.2257
36.2714
36.3252
36.387
36.4566
36.5338
36.6185
36.7105
36.8094
36.915
37.027
37.1451
37.2689
37.3982
37.5324
37.6712
37.8143
37.9611
38.1113
38.2644
38.4198
38.5771
38.7356
38.8949
39.0543
39.2133
39.3711
39.5273
39.6812
39.8322
39.9798
40.1233
40.2622
40.3956
40.5231
40.6438
40.7571
58.5979
58.624
58.669
58.7296
58.8045
58.8929
58.9946
59.1093
59.2367
59.3764
59.5281
59.6914
59.8658
60.0508
60.246
60.4507
60.6644
60.8865
61.1163
61.3532
61.5965
61.8454
62.0991
62.3568
62.6177
62.8809
63.1453
63.41
63.6741
63.9365
64.1961
64.452
64.7034
64.9491
65.1881
65.4194
65.6418
65.8541
66.0553
66.2442
80.0034
80.0394
80.1013
80.1849
80.2882
80.4105
80.5513
80.7102
80.8868
81.0806
81.291
81.5177
81.7599
82.017
82.2882
82.5729
82.8702
83.1793
83.4994
83.8294
84.1684
84.5155
84.8694
85.2292
85.5934
85.961
86.3306
86.7007
87.07
87.4371
87.8006
88.1593
88.5117
88.8564
89.1918
89.5164
89.8286
90.1269
90.4095
90.6749
100.491
100.537
100.616
100.722
100.854
101.009
101.188
101.391
101.616
101.863
102.131
102.421
102.73
103.058
103.405
103.769
104.149
104.545
104.955
105.378
105.813
106.258
106.712
107.174
107.642
108.115
108.59
109.067
109.542
110.015
110.484
110.947
111.402
111.848
112.282
112.701
113.105
113.491
113.857
114.201
120.177
120.233
120.329
120.457
120.616
120.805
121.022
121.267
121.54
121.84
122.166
122.517
122.893
123.293
123.714
124.158
124.621
125.103
125.604
126.12
126.651
127.195
127.751
128.316
128.889
129.468
130.051
130.636
131.22
131.801
132.378
132.948
133.508
134.057
134.592
135.11
135.609
136.085
136.537
136.961
139.162
139.228
139.341
139.492
139.678
139.899
140.154
140.442
140.762
141.115
141.498
141.911
142.354
142.824
143.321
143.844
144.391
144.961
145.552
146.162
146.791
147.436
148.094
148.765
149.446
150.134
150.827
151.522
152.218
152.911
153.599
154.28
154.949
155.606
156.245
156.865
157.462
158.033
158.574
159.083
157.535
157.611
157.74
157.913
158.127
158.381
158.673
159.003
159.371
159.776
160.216
160.692
161.201
161.743
162.316
162.919
163.551
164.209
164.893
165.6
166.328
167.076
167.84
168.619
169.41
170.211
171.018
171.828
172.639
173.449
174.253
175.049
175.833
176.601
177.351
178.077
178.777
179.446
180.081
180.678
175.373
175.458
175.603
175.798
176.039
176.325
176.654
177.027
177.443
177.9
178.399
178.937
179.514
180.128
180.779
181.464
182.182
182.931
183.71
184.515
185.346
186.2
187.073
187.964
188.87
189.787
190.713
191.643
192.576
193.507
194.433
195.349
196.253
197.139
198.004
198.842
199.65
200.424
201.157
201.848
192.739
192.833
192.993
193.21
193.478
193.796
194.164
194.58
195.044
195.554
196.111
196.713
197.359
198.048
198.777
199.546
200.353
201.195
202.072
202.98
203.916
204.88
205.867
206.875
207.9
208.939
209.989
211.046
212.106
213.165
214.219
215.263
216.293
217.303
218.289
219.246
220.169
221.052
221.89
222.679
209.689
209.791
209.967
210.205
210.501
210.852
211.257
211.716
212.229
212.794
213.411
214.078
214.795
215.559
216.37
217.225
218.124
219.063
220.04
221.054
222.102
223.18
224.285
225.415
226.566
227.734
228.914
230.103
231.298
232.492
233.681
234.86
236.023
237.165
238.28
239.362
240.405
241.405
242.354
243.247
226.271
226.381
226.572
226.831
227.153
227.537
227.981
228.485
229.047
229.668
230.346
231.08
231.87
232.712
233.607
234.552
235.545
236.584
237.667
238.792
239.954
241.152
242.382
243.641
244.923
246.226
247.544
248.874
250.21
251.547
252.879
254.2
255.505
256.786
258.037
259.252
260.424
261.546
262.613
263.617
242.523
242.641
242.846
243.126
243.476
243.893
244.376
244.925
245.538
246.216
246.957
247.76
248.625
249.548
250.53
251.567
252.659
253.803
254.996
256.236
257.519
258.843
260.204
261.597
263.018
264.463
265.927
267.405
268.891
270.379
271.863
273.335
274.789
276.218
277.614
278.97
280.278
281.532
282.723
283.845
258.48
258.604
258.824
259.125
259.502
259.952
260.475
261.07
261.736
262.473
263.279
264.153
265.095
266.102
267.174
268.308
269.503
270.755
272.063
273.424
274.834
276.29
277.787
279.322
280.89
282.485
284.103
285.738
287.383
289.031
290.675
292.308
293.921
295.506
297.056
298.561
300.014
301.407
302.73
303.977
274.168
274.299
274.532
274.854
275.259
275.744
276.307
276.95
277.669
278.466
279.339
280.287
281.309
282.403
283.569
284.803
286.105
287.471
288.899
290.386
291.929
293.523
295.165
296.849
298.571
300.325
302.105
303.906
305.718
307.536
309.35
311.153
312.934
314.686
316.399
318.063
319.671
321.211
322.676
324.056
289.612
289.749
289.995
290.338
290.77
291.29
291.895
292.586
293.361
294.22
295.162
296.186
297.291
298.476
299.738
301.077
302.49
303.975
305.528
307.147
308.829
310.568
312.361
314.202
316.087
318.008
319.96
321.935
323.926
325.923
327.918
329.9
331.861
333.79
335.676
337.51
339.281
340.979
342.594
344.116
304.83
304.972
305.232
305.595
306.056
306.611
307.259
307.999
308.831
309.754
310.767
311.87
313.061
314.339
315.702
317.149
318.678
320.286
321.97
323.727
325.553
327.445
329.397
331.403
333.458
335.556
337.689
339.849
342.028
344.215
346.401
348.575
350.726
352.843
354.914
356.928
358.874
360.74
362.516
364.19
319.837
319.985
320.258
320.642
321.13
321.721
322.413
323.204
324.094
325.083
326.17
327.353
328.633
330.007
331.475
333.035
334.684
336.42
338.24
340.141
342.119
344.169
346.287
348.467
350.702
352.985
355.308
357.664
360.041
362.43
364.819
367.196
369.549
371.866
374.135
376.341
378.474
380.52
382.468
384.304
334.646
334.8
335.085
335.49
336.007
336.635
337.37
338.214
339.164
340.22
341.382
342.649
344.02
345.494
347.07
348.745
350.519
352.388
354.349
356.4
358.536
360.753
363.044
365.405
367.829
370.307
372.831
375.393
377.98
380.582
383.186
385.78
388.349
390.88
393.358
395.771
398.104
400.343
402.475
404.486
349.267
349.427
349.725
350.15
350.696
351.361
352.141
353.038
354.049
355.174
356.413
357.766
359.231
360.808
362.495
364.29
366.192
368.199
370.307
372.513
374.813
377.203
379.676
382.227
384.848
387.531
390.267
393.045
395.855
398.683
401.516
404.339
407.138
409.898
412.602
415.236
417.784
420.23
422.561
424.76
363.708
363.873
364.184
364.63
365.205
365.907
366.733
367.683
368.757
369.953
371.271
372.711
374.273
375.955
377.756
379.675
381.71
383.859
386.118
388.485
390.956
393.525
396.188
398.936
401.764
404.662
407.621
410.629
413.673
416.741
419.817
422.885
425.93
428.934
431.881
434.752
437.532
440.202
442.748
445.15
377.974
378.144
378.468
378.935
379.54
380.279
381.152
382.156
383.293
384.561
385.959
387.489
389.149
390.939
392.857
394.903
397.074
399.369
401.785
404.319
406.966
409.722
412.581
415.536
418.58
421.704
424.896
428.146
431.439
434.761
438.095
441.425
444.733
448
451.207
454.335
457.366
460.279
463.058
465.682
392.069
392.245
392.581
393.069
393.703
394.481
395.4
396.46
397.66
399.001
400.482
402.103
403.863
405.763
407.801
409.976
412.287
414.732
417.309
420.014
422.844
425.793
428.856
432.027
435.296
438.656
442.094
445.598
449.154
452.745
456.355
459.965
463.555
467.105
470.594
474
477.303
480.481
483.514
486.379
405.997
406.178
406.527
407.036
407.699
408.515
409.481
410.596
411.861
413.276
414.84
416.553
418.415
420.426
422.586
424.894
427.348
429.947
432.688
435.569
438.587
441.736
445.01
448.404
451.909
455.516
459.211
462.984
466.817
470.695
474.599
478.509
482.402
486.257
490.051
493.76
497.361
500.829
504.14
507.27
419.757
419.943
420.305
420.835
421.528
422.382
423.395
424.566
425.896
427.385
429.032
430.839
432.804
434.928
437.212
439.654
442.253
445.009
447.919
450.981
454.191
457.546
461.039
464.665
468.414
472.278
476.244
480.299
484.427
488.609
492.826
497.057
501.278
505.464
509.59
513.63
517.557
521.344
524.962
528.385
433.35
433.543
433.917
434.468
435.19
436.082
437.142
438.369
439.764
441.327
443.059
444.959
447.028
449.267
451.675
454.253
457
459.915
462.996
466.243
469.651
473.217
476.936
480.801
484.804
488.937
493.186
497.537
501.976
506.481
511.034
515.61
520.184
524.73
529.219
533.623
537.91
542.05
546.009
549.756
446.777
446.974
447.362
447.933
448.685
449.614
450.721
452.004
453.464
455.101
456.917
458.91
461.084
463.437
465.971
468.686
471.582
474.659
477.915
481.349
484.958
488.741
492.691
496.803
501.069
505.481
510.026
514.689
519.456
524.305
529.216
534.163
539.12
544.059
548.947
553.753
558.44
562.973
567.313
571.423
460.034
460.238
460.638
461.229
462.01
462.977
464.129
465.468
466.992
468.704
470.602
472.69
474.967
477.436
480.096
482.948
485.994
489.233
492.665
496.29
500.105
504.107
508.294
512.66
517.198
521.899
526.752
531.743
536.855
542.069
547.363
552.711
558.084
563.452
568.781
574.033
579.168
584.142
588.912
593.431
473.121
473.33
473.742
474.354
475.163
476.167
477.365
478.758
480.346
482.131
484.113
486.293
488.674
491.256
494.042
497.032
500.228
503.631
507.24
511.056
515.079
519.306
523.734
528.359
533.176
538.176
543.349
548.682
554.159
559.76
565.463
571.243
577.069
582.909
588.725
594.476
600.115
605.591
610.849
615.832
486.034
486.248
486.674
487.305
488.142
489.182
490.425
491.871
493.522
495.379
497.442
499.715
502.198
504.893
507.804
510.931
514.276
517.842
521.629
525.638
529.869
534.322
538.995
543.885
548.987
554.294
559.799
565.488
571.347
577.358
583.499
589.744
596.063
602.423
608.783
615.096
621.308
627.357
633.175
638.693
498.77
498.991
499.428
500.079
500.943
502.018
503.305
504.804
506.516
508.443
510.586
512.949
515.533
518.34
521.373
524.636
528.129
531.857
535.82
540.022
544.462
549.142
554.062
559.219
564.612
570.234
576.079
582.138
588.396
594.839
601.446
608.192
615.05
621.984
628.952
635.902
642.771
649.483
655.953
662.092
511.327
511.553
512.002
512.672
513.562
514.672
516.001
517.551
519.322
521.318
523.54
525.99
528.673
531.589
534.743
538.139
541.778
545.666
549.804
554.196
558.844
563.751
568.917
574.344
580.029
585.971
592.165
598.604
605.278
612.173
619.274
626.559
634.003
641.572
649.223
656.9
664.529
672.018
679.257
686.13
523.7
523.931
524.392
525.081
525.996
527.139
528.509
530.108
531.937
533.999
536.297
538.833
541.611
544.634
547.906
551.431
555.214
559.258
563.567
568.147
573
578.131
583.542
589.237
595.216
601.48
608.028
614.855
621.957
629.324
636.946
644.806
652.886
661.156
669.576
678.087
686.604
695.015
703.177
710.931
535.885
536.122
536.594
537.3
538.241
539.415
540.824
542.47
544.355
546.481
548.852
551.471
554.341
557.467
560.853
564.504
568.425
572.622
577.098
581.861
586.914
592.265
597.917
603.876
610.147
616.732
623.634
630.854
638.392
646.246
654.411
662.882
671.648
680.69
689.975
699.446
709.01
718.53
727.82
736.654
547.88
548.122
548.605
549.328
550.291
551.496
552.943
554.634
556.571
558.759
561.2
563.897
566.856
570.081
573.577
577.349
581.404
585.746
590.384
595.323
600.571
606.134
612.021
618.238
624.794
631.695
638.948
646.561
654.538
662.886
671.612
680.722
690.22
700.104
710.357
720.933
731.739
742.614
753.313
763.509
559.68
559.926
560.419
561.158
562.144
563.377
564.859
566.593
568.581
570.827
573.334
576.107
579.15
582.469
586.069
589.957
594.139
598.621
603.413
608.52
613.953
619.721
625.833
632.299
639.13
646.337
653.933
661.929
670.341
679.184
688.477
698.245
708.511
719.3
730.624
742.464
754.745
767.293
779.795
791.772
571.28
571.532
572.035
572.789
573.795
575.055
576.57
578.344
580.38
582.68
585.25
588.094
591.217
594.624
598.323
602.32
606.621
611.236
616.172
621.438
627.046
633.007
639.331
646.032
653.124
660.623
668.546
676.912
685.744
695.07
704.924
715.351
726.405
738.144
750.627
763.889
777.908
792.533
807.4
821.817
582.679
582.935
583.446
584.214
585.24
586.525
588.072
589.883
591.963
594.314
596.943
599.853
603.05
606.541
610.331
614.429
618.842
623.579
628.65
634.064
639.834
645.973
652.495
659.414
666.749
674.52
682.748
691.46
700.687
710.471
720.863
731.929
743.759
756.458
770.15
784.959
800.972
818.154
836.18
854.139
593.871
594.131
594.651
595.432
596.475
597.783
599.359
601.205
603.326
605.725
608.407
611.379
614.645
618.212
622.087
626.278
630.793
635.642
640.835
646.385
652.303
658.604
665.305
672.422
679.978
687.994
696.499
705.524
715.112
725.313
736.197
747.856
760.412
774.028
788.906
805.296
823.469
843.668
865.89
889.32
604.854
605.117
605.645
606.438
607.497
608.827
610.429
612.307
614.465
616.908
619.64
622.667
625.996
629.632
633.584
637.859
642.466
647.416
652.719
658.389
664.439
670.884
677.743
685.035
692.784
701.016
709.762
719.061
728.961
739.524
750.835
763.007
776.197
790.616
806.551
824.385
844.636
868.01
895.395
927.476
14.0856
14.1179
14.1472
14.1732
14.1958
14.2148
14.2301
14.2417
14.2495
14.2534
14.2534
14.2495
14.2417
14.2301
14.2148
14.1958
14.1732
14.1472
14.1179
14.0856
40.8624
40.9591
41.0466
41.1242
41.1917
41.2485
41.2944
41.329
41.3522
41.3638
41.3638
41.3522
41.329
41.2944
41.2485
41.1917
41.1242
41.0466
40.9591
40.8624
66.4198
66.581
66.7268
66.8563
66.9688
67.0635
67.14
67.1977
67.2364
67.2558
67.2558
67.2364
67.1977
67.14
67.0635
66.9688
66.8563
66.7268
66.581
66.4198
90.9216
91.1481
91.3531
91.5352
91.6934
91.8266
91.9341
92.0153
92.0696
92.0969
92.0969
92.0696
92.0153
91.9341
91.8266
91.6934
91.5352
91.3531
91.1481
90.9216
114.52
114.814
115.079
115.315
115.52
115.693
115.832
115.938
116.008
116.043
116.043
116.008
115.938
115.832
115.693
115.52
115.315
115.079
114.814
114.52
137.356
137.719
138.047
138.339
138.592
138.806
138.978
139.109
139.196
139.239
139.239
139.196
139.109
138.978
138.806
138.592
138.339
138.047
137.719
137.356
159.556
159.991
160.385
160.735
161.039
161.295
161.502
161.658
161.763
161.816
161.816
161.763
161.658
161.502
161.295
161.039
160.735
160.385
159.991
159.556
181.234
181.745
182.207
182.618
182.976
183.277
183.521
183.704
183.827
183.889
183.889
183.827
183.704
183.521
183.277
182.976
182.618
182.207
181.745
181.234
202.49
203.081
203.616
204.092
204.506
204.855
205.137
205.35
205.492
205.564
205.564
205.492
205.35
205.137
204.855
204.506
204.092
203.616
203.081
202.49
223.413
224.089
224.701
225.246
225.719
226.119
226.441
226.685
226.848
226.93
226.93
226.848
226.685
226.441
226.119
225.719
225.246
224.701
224.089
223.413
244.079
244.844
245.538
246.156
246.693
247.146
247.512
247.788
247.974
248.067
248.067
247.974
247.788
247.512
247.146
246.693
246.156
245.538
244.844
244.079
264.553
265.413
266.194
266.889
267.494
268.004
268.416
268.727
268.936
269.041
269.041
268.936
268.727
268.416
268.004
267.494
266.889
266.194
265.413
264.553
284.89
285.852
286.725
287.503
288.179
288.75
289.212
289.56
289.794
289.911
289.911
289.794
289.56
289.212
288.75
288.179
287.503
286.725
285.852
284.89
305.14
306.21
307.181
308.046
308.799
309.435
309.949
310.337
310.598
310.728
310.728
310.598
310.337
309.949
309.435
308.799
308.046
307.181
306.21
305.14
325.343
326.528
327.604
328.563
329.397
330.102
330.672
331.103
331.391
331.536
331.536
331.391
331.103
330.672
330.102
329.397
328.563
327.604
326.528
325.343
345.536
346.844
348.032
349.09
350.012
350.79
351.42
351.895
352.215
352.375
352.375
352.215
351.895
351.42
350.79
350.012
349.09
348.032
346.844
345.536
365.751
367.191
368.498
369.663
370.677
371.534
372.228
372.752
373.103
373.28
373.28
373.103
372.752
372.228
371.534
370.677
369.663
368.498
367.191
365.751
386.018
387.598
389.033
390.312
391.427
392.368
393.13
393.705
394.091
394.285
394.285
394.091
393.705
393.13
392.368
391.427
390.312
389.033
387.598
386.018
406.363
408.094
409.666
411.069
412.29
413.322
414.157
414.788
415.212
415.424
415.424
415.212
414.788
414.157
413.322
412.29
411.069
409.666
408.094
406.363
426.814
428.707
430.428
431.962
433.299
434.429
435.342
436.033
436.496
436.728
436.728
436.496
436.033
435.342
434.429
433.299
431.962
430.428
428.707
426.814
447.395
449.465
451.345
453.023
454.484
455.719
456.717
457.472
457.978
458.232
458.232
457.978
457.472
456.717
455.719
454.484
453.023
451.345
449.465
447.395
468.133
470.395
472.449
474.282
475.878
477.226
478.316
479.139
479.691
479.968
479.968
479.691
479.139
478.316
477.226
475.878
474.282
472.449
470.395
468.133
489.057
491.527
493.772
495.773
497.515
498.986
500.174
501.072
501.674
501.975
501.975
501.674
501.072
500.174
498.986
497.515
495.773
493.772
491.527
489.057
510.196
512.896
515.347
517.532
519.433
521.037
522.332
523.31
523.965
524.293
524.293
523.965
523.31
522.332
521.037
519.433
517.532
515.347
512.896
510.196
531.584
534.536
537.215
539.601
541.675
543.423
544.833
545.897
546.61
546.967
546.967
546.61
545.897
544.833
543.423
541.675
539.601
537.215
534.536
531.584
553.259
556.49
559.419
562.026
564.289
566.193
567.728
568.884
569.658
570.045
570.045
569.658
568.884
567.728
566.193
564.289
562.026
559.419
556.49
553.259
575.265
578.806
582.013
584.862
587.33
589.404
591.072
592.327
593.165
593.584
593.584
593.165
592.327
591.072
589.404
587.33
584.862
582.013
578.806
575.265
597.654
601.541
605.057
608.172
610.865
613.12
614.929
616.288
617.194
617.647
617.647
617.194
616.288
614.929
613.12
610.865
608.172
605.057
601.541
597.654
620.487
624.765
628.624
632.032
634.968
637.417
639.375
640.841
641.816
642.303
642.303
641.816
640.841
639.375
637.417
634.968
632.032
628.624
624.765
620.487
643.842
648.563
652.805
656.534
659.73
662.383
664.494
666.068
667.113
667.633
667.633
667.113
666.068
664.494
662.383
659.73
656.534
652.805
648.563
643.842
667.813
673.038
677.709
681.789
685.26
688.122
690.386
692.065
693.176
693.728
693.728
693.176
692.065
690.386
688.122
685.26
681.789
677.709
673.038
667.813
692.519
698.324
703.474
707.931
711.687
714.756
717.164
718.939
720.106
720.685
720.685
720.106
718.939
717.164
714.756
711.687
707.931
703.474
698.324
692.519
718.113
724.59
730.272
735.128
739.167
742.428
744.959
746.808
748.017
748.613
748.613
748.017
746.808
744.959
742.428
739.167
735.128
730.272
724.59
718.113
744.798
752.057
758.327
763.588
767.886
771.3
773.913
775.801
777.026
777.628
777.628
777.026
775.801
773.913
771.3
767.886
763.588
758.327
752.057
744.798
772.845
781.025
787.923
793.563
798.059
801.552
804.18
806.054
807.258
807.846
807.846
807.258
806.054
804.18
801.552
798.059
793.563
787.923
781.025
772.845
802.641
811.906
819.434
825.361
829.927
833.378
835.917
837.698
838.83
839.38
839.38
838.83
837.698
835.917
833.378
829.927
825.361
819.434
811.906
802.641
834.769
845.293
853.346
859.34
863.749
866.964
869.268
870.854
871.85
872.331
872.331
871.85
870.854
869.268
866.964
863.749
859.34
853.346
845.293
834.769
870.212
882.079
890.275
895.884
899.76
902.464
904.346
905.616
906.404
906.781
906.781
906.404
905.616
904.346
902.464
899.76
895.884
890.275
882.079
870.212
910.922
923.642
930.927
935.311
938.104
939.958
941.209
942.039
942.548
942.79
942.79
942.548
942.039
941.209
939.958
938.104
935.311
930.927
923.642
910.922
961.772
971.942
975.803
977.664
978.728
979.4
979.843
980.133
980.309
980.393
980.393
980.309
980.133
979.843
979.4
978.728
977.664
975.803
971.942
961.772
14.0503
14.0124
13.972
13.9293
13.8846
13.8381
13.7901
13.7406
13.69
13.6385
13.5861
13.5332
13.4798
13.4263
13.3729
13.3196
13.2668
13.2146
13.1631
13.1126
13.0632
13.0151
12.9683
12.9231
12.8796
12.8378
12.798
12.7602
12.7246
12.6912
12.6601
12.6315
12.6053
12.5818
12.5609
12.5426
12.5271
12.5142
12.5042
12.4977
40.7571
40.6438
40.5231
40.3956
40.2622
40.1233
39.9798
39.8322
39.6812
39.5273
39.3711
39.2133
39.0543
38.8949
38.7356
38.5771
38.4198
38.2644
38.1113
37.9611
37.8143
37.6712
37.5324
37.3982
37.2689
37.1451
37.027
36.915
36.8094
36.7105
36.6185
36.5338
36.4566
36.387
36.3252
36.2714
36.2257
36.1884
36.1605
36.1442
66.2442
66.0553
65.8541
65.6418
65.4194
65.1881
64.9491
64.7034
64.452
64.1961
63.9365
63.6741
63.41
63.1453
62.8809
62.6177
62.3568
62.0991
61.8454
61.5965
61.3532
61.1163
60.8865
60.6644
60.4507
60.246
60.0508
59.8658
59.6914
59.5281
59.3764
59.2367
59.1093
58.9946
58.8929
58.8045
58.7296
58.669
58.624
58.5979
90.6749
90.4095
90.1269
89.8286
89.5164
89.1918
88.8564
88.5117
88.1593
87.8006
87.4371
87.07
86.7007
86.3306
85.961
85.5934
85.2292
84.8694
84.5155
84.1684
83.8294
83.4994
83.1793
82.8702
82.5729
82.2882
82.017
81.7599
81.5177
81.291
81.0806
80.8868
80.7102
80.5513
80.4105
80.2882
80.1849
80.1013
80.0394
80.0034
114.201
113.857
113.491
113.105
112.701
112.282
111.848
111.402
110.947
110.484
110.015
109.542
109.067
108.59
108.115
107.642
107.174
106.712
106.258
105.813
105.378
104.955
104.545
104.149
103.769
103.405
103.058
102.73
102.421
102.131
101.863
101.616
101.391
101.188
101.009
100.854
100.722
100.616
100.537
100.491
136.961
136.537
136.085
135.609
135.11
134.592
134.057
133.508
132.948
132.378
131.801
131.22
130.636
130.051
129.468
128.889
128.316
127.751
127.195
126.651
126.12
125.604
125.103
124.621
124.158
123.714
123.293
122.893
122.517
122.166
121.84
121.54
121.267
121.022
120.805
120.616
120.457
120.329
120.233
120.177
159.083
158.574
158.033
157.462
156.865
156.245
155.606
154.949
154.28
153.599
152.911
152.218
151.522
150.827
150.134
149.446
148.765
148.094
147.436
146.791
146.162
145.552
144.961
144.391
143.844
143.321
142.824
142.354
141.911
141.498
141.115
140.762
140.442
140.154
139.899
139.678
139.492
139.341
139.228
139.162
180.678
180.081
179.446
178.777
178.077
177.351
176.601
175.833
175.049
174.253
173.449
172.639
171.828
171.018
170.211
169.41
168.619
167.84
167.076
166.328
165.6
164.893
164.209
163.551
162.919
162.316
161.743
161.201
160.692
160.216
159.776
159.371
159.003
158.673
158.381
158.127
157.913
157.74
157.611
157.535
201.848
201.157
200.424
199.65
198.842
198.004
197.139
196.253
195.349
194.433
193.507
192.576
191.643
190.713
189.787
188.87
187.964
187.073
186.2
185.346
184.515
183.71
182.931
182.182
181.464
180.779
180.128
179.514
178.937
178.399
177.9
177.443
177.027
176.654
176.325
176.039
175.798
175.603
175.458
175.373
222.679
221.89
221.052
220.169
219.246
218.289
217.303
216.293
215.263
214.219
213.165
212.106
211.046
209.989
208.939
207.9
206.875
205.867
204.88
203.916
202.98
202.072
201.195
200.353
199.546
198.777
198.048
197.359
196.713
196.111
195.554
195.044
194.58
194.164
193.796
193.478
193.21
192.993
192.833
192.739
243.247
242.354
241.405
240.405
239.362
238.28
237.165
236.023
234.86
233.681
232.492
231.298
230.103
228.914
227.734
226.566
225.415
224.285
223.18
222.102
221.054
220.04
219.063
218.124
217.225
216.37
215.559
214.795
214.078
213.411
212.794
212.229
211.716
211.257
210.852
210.501
210.205
209.967
209.791
209.689
263.617
262.613
261.546
260.424
259.252
258.037
256.786
255.505
254.2
252.879
251.547
250.21
248.874
247.544
246.226
244.923
243.641
242.382
241.152
239.954
238.792
237.667
236.584
235.545
234.552
233.607
232.712
231.87
231.08
230.346
229.668
229.047
228.485
227.981
227.537
227.153
226.831
226.572
226.381
226.271
283.845
282.723
281.532
280.278
278.97
277.614
276.218
274.789
273.335
271.863
270.379
268.891
267.405
265.927
264.463
263.018
261.597
260.204
258.843
257.519
256.236
254.996
253.803
252.659
251.567
250.53
249.548
248.625
247.76
246.957
246.216
245.538
244.925
244.376
243.893
243.476
243.126
242.846
242.641
242.523
303.977
302.73
301.407
300.014
298.561
297.056
295.506
293.921
292.308
290.675
289.031
287.383
285.738
284.103
282.485
280.89
279.322
277.787
276.29
274.834
273.424
272.063
270.755
269.503
268.308
267.174
266.102
265.095
264.153
263.279
262.473
261.736
261.07
260.475
259.952
259.502
259.125
258.824
258.604
258.48
324.056
322.676
321.211
319.671
318.063
316.399
314.686
312.934
311.153
309.35
307.536
305.718
303.906
302.105
300.325
298.571
296.849
295.165
293.523
291.929
290.386
288.899
287.471
286.105
284.803
283.569
282.403
281.309
280.287
279.339
278.466
277.669
276.95
276.307
275.744
275.259
274.854
274.532
274.299
274.169
344.116
342.594
340.979
339.281
337.51
335.676
333.79
331.861
329.9
327.918
325.923
323.926
321.935
319.96
318.008
316.087
314.202
312.361
310.568
308.829
307.147
305.528
303.975
302.49
301.077
299.738
298.476
297.291
296.186
295.162
294.22
293.361
292.586
291.895
291.29
290.77
290.338
289.995
289.749
289.612
364.19
362.516
360.74
358.874
356.928
354.914
352.843
350.726
348.575
346.401
344.215
342.028
339.849
337.689
335.556
333.458
331.403
329.397
327.445
325.553
323.727
321.97
320.286
318.678
317.149
315.702
314.339
313.061
311.87
310.767
309.754
308.831
307.999
307.259
306.611
306.056
305.595
305.232
304.972
304.83
384.304
382.468
380.52
378.474
376.341
374.135
371.866
369.549
367.196
364.819
362.43
360.041
357.664
355.308
352.985
350.702
348.467
346.287
344.169
342.119
340.141
338.24
336.42
334.684
333.035
331.475
330.007
328.633
327.353
326.17
325.083
324.094
323.204
322.413
321.721
321.13
320.642
320.258
319.985
319.837
404.486
402.475
400.343
398.104
395.771
393.358
390.88
388.349
385.78
383.186
380.582
377.98
375.393
372.831
370.307
367.829
365.405
363.044
360.753
358.536
356.4
354.349
352.388
350.519
348.745
347.07
345.494
344.02
342.649
341.382
340.22
339.164
338.214
337.37
336.635
336.007
335.49
335.085
334.8
334.646
424.76
422.561
420.23
417.784
415.236
412.602
409.898
407.138
404.339
401.516
398.683
395.855
393.045
390.267
387.531
384.848
382.227
379.676
377.203
374.813
372.513
370.307
368.199
366.192
364.29
362.495
360.808
359.231
357.766
356.413
355.174
354.049
353.038
352.141
351.361
350.696
350.15
349.725
349.427
349.267
445.15
442.748
440.202
437.532
434.752
431.881
428.934
425.93
422.885
419.817
416.741
413.673
410.629
407.621
404.662
401.764
398.936
396.188
393.525
390.956
388.485
386.118
383.859
381.71
379.675
377.756
375.955
374.273
372.711
371.271
369.953
368.757
367.683
366.733
365.907
365.205
364.63
364.184
363.873
363.708
465.682
463.058
460.279
457.366
454.335
451.207
448
444.733
441.425
438.095
434.761
431.439
428.146
424.896
421.704
418.58
415.536
412.581
409.722
406.966
404.319
401.785
399.369
397.074
394.903
392.857
390.939
389.149
387.489
385.959
384.561
383.293
382.156
381.152
380.279
379.54
378.935
378.468
378.144
377.974
486.379
483.514
480.481
477.303
474
470.594
467.105
463.555
459.965
456.355
452.745
449.154
445.598
442.094
438.656
435.296
432.027
428.856
425.793
422.844
420.014
417.309
414.732
412.287
409.976
407.801
405.763
403.863
402.103
400.482
399.001
397.66
396.46
395.4
394.481
393.703
393.069
392.581
392.245
392.069
507.27
504.14
500.829
497.361
493.76
490.051
486.257
482.402
478.509
474.599
470.695
466.817
462.984
459.211
455.516
451.909
448.404
445.01
441.736
438.587
435.569
432.688
429.947
427.348
424.894
422.586
420.426
418.415
416.553
414.84
413.276
411.861
410.596
409.481
408.515
407.699
407.036
406.527
406.178
405.997
528.385
524.962
521.344
517.557
513.63
509.59
505.464
501.278
497.057
492.826
488.609
484.427
480.299
476.244
472.278
468.414
464.665
461.039
457.546
454.191
450.981
447.919
445.009
442.253
439.654
437.212
434.928
432.804
430.839
429.032
427.385
425.896
424.566
423.395
422.382
421.528
420.835
420.305
419.943
419.757
549.756
546.009
542.05
537.91
533.623
529.219
524.73
520.184
515.61
511.034
506.481
501.976
497.537
493.186
488.937
484.804
480.801
476.936
473.217
469.651
466.243
462.996
459.915
457
454.253
451.675
449.267
447.028
444.959
443.059
441.327
439.764
438.369
437.142
436.082
435.19
434.468
433.917
433.543
433.35
571.423
567.313
562.973
558.44
553.753
548.947
544.059
539.12
534.163
529.216
524.305
519.456
514.689
510.026
505.481
501.069
496.803
492.691
488.741
484.958
481.349
477.915
474.659
471.582
468.686
465.971
463.437
461.084
458.91
456.917
455.101
453.464
452.004
450.721
449.614
448.685
447.933
447.362
446.974
446.777
593.431
588.912
584.142
579.168
574.033
568.781
563.452
558.084
552.711
547.363
542.069
536.855
531.743
526.752
521.899
517.198
512.66
508.294
504.107
500.105
496.29
492.665
489.233
485.994
482.948
480.096
477.436
474.967
472.69
470.602
468.704
466.992
465.468
464.129
462.977
462.01
461.229
460.638
460.238
460.034
615.832
610.849
605.591
600.115
594.476
588.725
582.909
577.069
571.243
565.463
559.76
554.159
548.682
543.349
538.176
533.176
528.359
523.734
519.306
515.079
511.056
507.24
503.631
500.228
497.032
494.042
491.256
488.674
486.293
484.113
482.131
480.346
478.758
477.365
476.167
475.163
474.354
473.742
473.33
473.121
638.693
633.175
627.357
621.308
615.096
608.783
602.423
596.063
589.744
583.499
577.358
571.347
565.488
559.799
554.294
548.987
543.885
538.995
534.322
529.869
525.638
521.629
517.842
514.276
510.931
507.804
504.893
502.198
499.715
497.442
495.379
493.522
491.871
490.425
489.182
488.142
487.305
486.674
486.248
486.034
662.092
655.953
649.483
642.771
635.902
628.952
621.984
615.05
608.192
601.446
594.839
588.396
582.138
576.079
570.234
564.612
559.219
554.062
549.142
544.462
540.022
535.82
531.857
528.129
524.636
521.373
518.34
515.533
512.949
510.586
508.443
506.516
504.804
503.305
502.018
500.943
500.079
499.428
498.991
498.77
686.13
679.257
672.018
664.529
656.9
649.223
641.572
634.003
626.559
619.274
612.173
605.278
598.604
592.165
585.971
580.029
574.344
568.917
563.751
558.844
554.196
549.804
545.666
541.778
538.139
534.743
531.589
528.673
525.99
523.54
521.318
519.322
517.551
516.001
514.672
513.562
512.672
512.002
511.553
511.327
710.931
703.177
695.015
686.604
678.087
669.576
661.156
652.886
644.806
636.946
629.324
621.957
614.855
608.028
601.48
595.216
589.237
583.542
578.131
573
568.147
563.567
559.258
555.214
551.431
547.906
544.634
541.611
538.833
536.297
533.999
531.937
530.108
528.509
527.139
525.996
525.081
524.392