/*--------------------------------*- C++ -*----------------------------------*\
  =========                 |
  \\      /  F ield         | OpenFOAM: The Open Source CFD Toolbox
   \\    /   O peration     | Website:  https://openfoam.org
    \\  /    A nd           | Version:  6
     \\/     M anipulation  |
\*---------------------------------------------------------------------------*/
FoamFile
{
    version     2.0;
    format      ascii;
    class       volScalarField;
    location    "70";
    object      fw;
}
// * * * * * * * * * * * * * * * * * * * * * * * * * * * * * * * * * * * * * //

dimensions      [0 0 0 0 0 0 0];

internalField   nonuniform List<scalar> 
8800
(
4.40746
4.40899
4.41154
4.41491
4.41903
4.42388
4.42944
4.43571
4.44268
4.45032
4.45861
4.46754
4.47708
4.48721
4.49789
4.50909
4.52079
4.53296
4.54556
4.55854
4.57189
4.58555
4.59948
4.61364
4.62799
4.64247
4.65702
4.67161
4.68617
4.70064
4.71497
4.72911
4.74299
4.75657
4.7698
4.7826
4.79492
4.80669
4.81785
4.82834
4.23772
4.23902
4.24134
4.24452
4.24846
4.25312
4.2585
4.26456
4.2713
4.27869
4.28673
4.29539
4.30464
4.31447
4.32484
4.33574
4.34712
4.35896
4.37123
4.38389
4.39691
4.41023
4.42384
4.43768
4.4517
4.46586
4.4801
4.49438
4.50864
4.52283
4.53688
4.55075
4.56439
4.57774
4.59074
4.60333
4.61545
4.62703
4.63801
4.64833
4.08977
4.09107
4.09331
4.09636
4.10015
4.10466
4.10986
4.11574
4.12229
4.12948
4.1373
4.14573
4.15475
4.16433
4.17446
4.1851
4.19623
4.20782
4.21983
4.23224
4.245
4.25809
4.27145
4.28506
4.29886
4.3128
4.32684
4.34092
4.35499
4.369
4.3829
4.39664
4.41016
4.4234
4.43631
4.44881
4.46086
4.47237
4.4833
4.49356
3.96125
3.96256
3.96477
3.96775
3.97144
3.97583
3.98089
3.98663
3.99301
4.00003
4.00768
4.01592
4.02476
4.03416
4.04409
4.05455
4.06549
4.0769
4.08874
4.10098
4.11359
4.12652
4.13975
4.15323
4.16691
4.18076
4.19471
4.20872
4.22273
4.2367
4.25058
4.26433
4.27787
4.29115
4.3041
4.31666
4.32877
4.34035
4.35134
4.36167
3.84975
3.85106
3.85326
3.85619
3.85982
3.86412
3.86908
3.8747
3.88096
3.88786
3.89538
3.90349
3.9122
3.92147
3.93128
3.94162
3.95246
3.96377
3.97552
3.98769
4.00024
4.01314
4.02634
4.03981
4.0535
4.06737
4.08137
4.09544
4.10954
4.12362
4.13765
4.15155
4.16527
4.17873
4.19187
4.20463
4.21693
4.2287
4.23988
4.2504
3.75303
3.75433
3.75651
3.75941
3.76299
3.76723
3.77212
3.77767
3.78385
3.79066
3.7981
3.80614
3.81478
3.82399
3.83375
3.84405
3.85487
3.86617
3.87794
3.89014
3.90274
3.91571
3.92901
3.9426
3.95643
3.97047
3.98465
3.99894
4.01328
4.02764
4.04197
4.05618
4.07021
4.084
4.09748
4.11056
4.12319
4.13528
4.14677
4.15759
3.66903
3.67031
3.67246
3.67533
3.67888
3.68308
3.68793
3.69344
3.69958
3.70637
3.71378
3.7218
3.73043
3.73966
3.74945
3.7598
3.77068
3.78207
3.79396
3.8063
3.81907
3.83223
3.84576
3.8596
3.87371
3.88805
3.90257
3.91722
3.93197
3.94677
3.96153
3.9762
3.99069
4.00495
4.01888
4.03242
4.0455
4.05803
4.06994
4.08115
3.5959
3.59714
3.59926
3.6021
3.60563
3.60982
3.61466
3.62016
3.62632
3.63312
3.64056
3.64863
3.65733
3.66663
3.67654
3.68702
3.69806
3.70965
3.72175
3.73434
3.7474
3.76088
3.77475
3.78898
3.80351
3.8183
3.8333
3.84847
3.86377
3.87913
3.89448
3.90973
3.92482
3.93966
3.95417
3.96829
3.98192
3.99498
4.00741
4.01912
3.53203
3.53322
3.53529
3.53811
3.54163
3.54582
3.55069
3.55622
3.56243
3.5693
3.57682
3.58501
3.59384
3.6033
3.61339
3.6241
3.63539
3.64726
3.65969
3.67264
3.6861
3.70002
3.71436
3.72909
3.74417
3.75954
3.77516
3.79099
3.80697
3.82303
3.83907
3.85503
3.87082
3.88636
3.90156
3.91634
3.93062
3.94432
3.95734
3.96962
3.47599
3.47713
3.47916
3.48195
3.48547
3.48969
3.49461
3.50021
3.50651
3.51349
3.52116
3.52951
3.53854
3.54824
3.55859
3.5696
3.58124
3.59349
3.60633
3.61975
3.6337
3.64817
3.6631
3.67846
3.6942
3.71027
3.72663
3.74324
3.76001
3.77686
3.79372
3.81048
3.82708
3.84341
3.85939
3.87494
3.88995
3.90435
3.91804
3.93095
3.42656
3.42765
3.42963
3.43241
3.43595
3.44021
3.4452
3.45091
3.45733
3.46448
3.47234
3.48092
3.49021
3.5002
3.51089
3.52228
3.53433
3.54705
3.5604
3.57436
3.58892
3.60402
3.61964
3.63572
3.65224
3.66912
3.68633
3.70381
3.72147
3.73922
3.75698
3.77465
3.79214
3.80935
3.82619
3.84257
3.85839
3.87356
3.88799
3.90159
3.3827
3.38373
3.38567
3.38845
3.39201
3.39634
3.40143
3.40727
3.41386
3.42121
3.4293
3.43816
3.44776
3.45811
3.4692
3.48103
3.49357
3.50682
3.52076
3.53535
3.55059
3.56642
3.58281
3.59971
3.61708
3.63487
3.65302
3.67146
3.69009
3.70883
3.72757
3.74622
3.76469
3.78286
3.80063
3.81792
3.83461
3.85061
3.86583
3.88018
3.34351
3.34448
3.34639
3.34917
3.35278
3.35719
3.36239
3.36839
3.37518
3.38276
3.39114
3.40031
3.41027
3.42103
3.43257
3.44489
3.45799
3.47184
3.48642
3.50172
3.5177
3.53432
3.55156
3.56936
3.58767
3.60644
3.6256
3.64507
3.66476
3.68456
3.70437
3.72408
3.74359
3.7628
3.78158
3.79984
3.81747
3.83437
3.85044
3.86559
3.30821
3.30914
3.31102
3.31381
3.31747
3.32198
3.32732
3.3335
3.34051
3.34836
3.35705
3.36657
3.37693
3.38814
3.40018
3.41304
3.42673
3.44123
3.45652
3.47257
3.48935
3.50684
3.52499
3.54375
3.56307
3.58288
3.60313
3.6237
3.64451
3.66544
3.68639
3.70725
3.72788
3.74819
3.76805
3.78736
3.806
3.82387
3.84085
3.85687
3.27615
3.27705
3.27891
3.28172
3.28545
3.29006
3.29556
3.30194
3.30919
3.31733
3.32635
3.33625
3.34705
3.35873
3.3713
3.38475
3.39908
3.41426
3.43029
3.44714
3.46479
3.48319
3.5023
3.52207
3.54246
3.56338
3.58477
3.60651
3.62851
3.65065
3.67282
3.69488
3.71673
3.73822
3.75925
3.77968
3.79941
3.81832
3.8363
3.85325
3.24677
3.24764
3.2495
3.25233
3.25613
3.26087
3.26653
3.27312
3.28064
3.28908
3.29845
3.30876
3.32001
3.33219
3.34532
3.35938
3.37437
3.39028
3.40709
3.42478
3.44332
3.46267
3.48279
3.50363
3.52513
3.54722
3.56981
3.5928
3.61606
3.63948
3.66294
3.68631
3.70945
3.73222
3.7545
3.77616
3.79707
3.81711
3.83617
3.85413
3.21957
3.22043
3.22229
3.22517
3.22905
3.23391
3.23975
3.24656
3.25435
3.26311
3.27285
3.28357
3.29529
3.30799
3.3217
3.33639
3.35207
3.36872
3.38634
3.40489
3.42436
3.4447
3.46588
3.48783
3.51049
3.53381
3.55766
3.58195
3.60655
3.63135
3.65619
3.68095
3.70548
3.72963
3.75328
3.77627
3.79847
3.81976
3.84
3.85908
3.19416
3.19501
3.19688
3.1998
3.20377
3.20877
3.21479
3.22183
3.22989
3.23898
3.24909
3.26024
3.27243
3.28567
3.29996
3.3153
3.33168
3.3491
3.36754
3.38699
3.40741
3.42877
3.45104
3.47414
3.49803
3.52262
3.54781
3.57348
3.5995
3.62575
3.65208
3.67834
3.70437
3.73003
3.75516
3.77961
3.80324
3.82591
3.84747
3.86779
3.17017
3.17102
3.17291
3.17589
3.17994
3.18508
3.19128
3.19855
3.20689
3.21631
3.2268
3.23838
3.25105
3.26483
3.27971
3.2957
3.31279
3.33099
3.35027
3.37063
3.39203
3.41445
3.43784
3.46215
3.48731
3.51323
3.53982
3.56694
3.59448
3.62229
3.65021
3.67809
3.70577
3.73307
3.75984
3.78591
3.81113
3.83533
3.85836
3.88006
3.14728
3.14815
3.15007
3.1531
3.15725
3.16253
3.16892
3.17642
3.18503
3.19477
3.20564
3.21765
3.2308
3.24511
3.26059
3.27723
3.29505
3.31403
3.33417
3.35545
3.37786
3.40136
3.4259
3.45145
3.47794
3.50526
3.53332
3.56199
3.59114
3.62062
3.65027
3.67992
3.70939
3.73851
3.7671
3.79497
3.82197
3.84789
3.87258
3.89586
3.12525
3.12613
3.12809
3.13118
3.13543
3.14084
3.14741
3.15514
3.16403
3.17409
3.18533
3.19775
3.21139
3.22623
3.2423
3.25959
3.27813
3.2979
3.3189
3.34112
3.36455
3.38916
3.4149
3.44174
3.46959
3.49838
3.528
3.55831
3.58919
3.62047
3.65199
3.68357
3.71503
3.74616
3.77678
3.80669
3.83569
3.86358
3.89015
3.91521
3.10383
3.10474
3.10673
3.10989
3.11424
3.11979
3.12654
3.13448
3.14364
3.15401
3.16561
3.17845
3.19255
3.20792
3.22457
3.24251
3.26176
3.28232
3.30419
3.32736
3.35183
3.37756
3.40454
3.4327
3.46199
3.49232
3.52358
3.55564
3.58837
3.62161
3.65517
3.68887
3.72252
3.7559
3.78881
3.82103
3.85232
3.88245
3.91118
3.93828
3.08284
3.08377
3.08581
3.08904
3.09349
3.09917
3.10608
3.11424
3.12365
3.13433
3.14628
3.15952
3.17407
3.18995
3.20717
3.22576
3.24572
3.26706
3.28979
3.31392
3.33944
3.36632
3.39456
3.4241
3.45488
3.48681
3.51981
3.55374
3.58846
3.62382
3.65962
3.69567
3.73177
3.76769
3.80319
3.83804
3.87196
3.90468
3.93591
3.96536
3.0621
3.06306
3.06515
3.06844
3.07299
3.0788
3.08587
3.09424
3.10389
3.11485
3.12714
3.14076
3.15575
3.17213
3.18991
3.20912
3.22978
3.2519
3.27549
3.30058
3.32715
3.35521
3.38473
3.41568
3.44801
3.48164
3.51647
3.55239
3.58926
3.62692
3.66519
3.70385
3.74269
3.78148
3.81996
3.85784
3.89481
3.93054
3.96468
3.99687
3.04147
3.04246
3.04459
3.04796
3.0526
3.05853
3.06576
3.07431
3.0842
3.09543
3.10803
3.12203
3.13744
3.15429
3.17261
3.19242
3.21376
3.23664
3.26109
3.28713
3.31477
3.34401
3.37485
3.40725
3.44118
3.47657
3.51335
3.5514
3.59059
3.63076
3.67173
3.71331
3.75525
3.79732
3.83922
3.88063
3.92117
3.96044
3.99799
4.03339
3.02082
3.02184
3.02403
3.02746
3.03219
3.03823
3.04561
3.05434
3.06444
3.07593
3.08883
3.10316
3.11897
3.13627
3.15511
3.17551
3.19751
3.22113
3.24643
3.27341
3.30211
3.33254
3.3647
3.39859
3.43418
3.47141
3.51023
3.55055
3.59224
3.63515
3.67912
3.72395
3.76941
3.81524
3.86112
3.90667
3.95143
3.9949
4.03651
4.0757
3.00006
3.00111
3.00334
3.00684
3.01165
3.0178
3.02531
3.0342
3.0445
3.05622
3.06939
3.08405
3.10023
3.11796
3.13729
3.15824
3.18087
3.20522
3.23133
3.25924
3.28899
3.32061
3.35412
3.38951
3.4268
3.46595
3.50691
3.54963
3.59401
3.63991
3.6872
3.73568
3.78515
3.83533
3.88586
3.93631
3.98611
4.03462
4.0811
4.12483
2.97909
2.98017
2.98245
2.98601
2.9909
2.99714
3.00477
3.01381
3.02428
3.03622
3.04964
3.06459
3.08111
3.09924
3.11902
3.14051
3.16374
3.18878
3.21568
3.24449
3.27527
3.30806
3.3429
3.37982
3.41883
3.45995
3.50316
3.54842
3.59567
3.64483
3.69578
3.74838
3.80242
3.85765
3.91369
3.96999
4.02588
4.08051
4.13292
4.18215
2.95784
2.95895
2.96127
2.96489
2.96985
2.97618
2.98391
2.99308
3.00371
3.01583
3.02948
3.0447
3.06153
3.08002
3.10022
3.1222
3.146
3.17169
3.19934
3.22902
3.2608
3.29473
3.33088
3.36931
3.41007
3.4532
3.49872
3.54665
3.59697
3.64966
3.70465
3.76186
3.82116
3.88229
3.94486
4.00824
4.07157
4.13375
4.19348
4.24947
2.93625
2.93739
2.93976
2.94342
2.94844
2.95484
2.96267
2.97195
2.98271
2.995
3.00884
3.0243
3.04141
3.06022
3.08081
3.10323
3.12755
3.15385
3.18221
3.21271
3.24542
3.28045
3.31787
3.35779
3.40028
3.44544
3.49333
3.54403
3.59759
3.65407
3.7135
3.7759
3.84122
3.90927
3.97965
4.05166
4.1242
4.19582
4.26476
4.32921
2.91429
2.91544
2.91785
2.92156
2.92663
2.93309
2.94099
2.95036
2.96124
2.97366
2.98768
3.00333
3.02068
3.03979
3.06072
3.08354
3.10833
3.13518
3.16419
3.19543
3.22902
3.26508
3.30371
3.34506
3.38924
3.4364
3.48668
3.54021
3.59716
3.65768
3.72195
3.79015
3.86235
3.93853
4.01831
4.10092
4.18501
4.26864
4.34939
4.42463
2.8919
2.89308
2.89551
2.89926
2.90437
2.91088
2.91884
2.92828
2.93925
2.95179
2.96594
2.98176
2.99932
3.01867
3.03989
3.06306
3.08827
3.11561
3.14518
3.17709
3.21148
3.24847
3.28822
3.33091
3.3767
3.4258
3.47842
3.5348
3.59522
3.65999
3.72949
3.8041
3.88416
3.96985
4.06096
4.15669
4.25544
4.35463
4.45089
4.54016
2.86907
2.87027
2.87273
2.8765
2.88164
2.88819
2.89619
2.90569
2.91672
2.92934
2.94361
2.95957
2.97729
2.99684
3.01831
3.04177
3.06733
3.09507
3.12512
3.1576
3.19267
3.23049
3.27124
3.31514
3.36241
3.41333
3.4682
3.52736
3.59126
3.66041
3.73544
3.81706
3.90598
4.00276
4.10751
4.21957
4.33713
4.4569
4.57397
4.68201
2.84579
2.847
2.84947
2.85327
2.85843
2.865
2.87303
2.88256
2.89364
2.90632
2.92066
2.93673
2.95458
2.97429
2.99595
3.01964
3.04546
3.07351
3.10394
3.13688
3.1725
3.211
3.25259
3.29753
3.34611
3.39866
3.45559
3.51739
3.58468
3.65821
3.73897
3.82809
3.92684
4.03638
4.15744
4.28982
4.43175
4.57919
4.72496
4.85917
2.82204
2.82325
2.82574
2.82955
2.83472
2.8413
2.84934
2.85889
2.86999
2.88272
2.89711
2.91324
2.93119
2.95101
2.9728
2.99664
3.02263
3.0509
3.08159
3.11485
3.15088
3.18989
3.23213
3.2779
3.32754
3.38147
3.44019
3.50436
3.57478
3.65254
3.73902
3.83593
3.9453
4.06923
4.20953
4.36702
4.54064
4.72577
4.91253
5.08529
2.79782
2.79904
2.80154
2.80534
2.81051
2.81709
2.82513
2.83468
2.8458
2.85854
2.87296
2.88914
2.90713
2.927
2.94885
2.97275
2.99883
3.02721
3.05803
3.09147
3.12774
3.16706
3.20973
3.25606
3.30647
3.36144
3.42159
3.48772
3.56087
3.64245
3.73435
3.83899
3.9594
4.09902
4.2614
4.44942
4.66392
4.90097
5.14854
5.38184
2.77314
2.77437
2.77686
2.78067
2.78583
2.7924
2.80042
2.80997
2.82108
2.83382
2.84824
2.86442
2.8824
2.90227
2.9241
2.94799
2.97405
3.00242
3.03324
3.0667
3.10301
3.14243
3.18526
3.23187
3.28269
3.3383
3.39941
3.46695
3.54221
3.62696
3.72359
3.83538
3.96656
4.12239
4.30898
4.53278
4.79884
5.1077
5.44802
5.78446
2.74802
2.74925
2.75174
2.75553
2.76067
2.76722
2.77523
2.78476
2.79585
2.80857
2.82297
2.8391
2.85703
2.87682
2.89857
2.92235
2.9483
2.97653
3.00721
3.04051
3.07667
3.11595
3.15866
3.20521
3.25606
3.31184
3.37333
3.44161
3.51817
3.60509
3.70533
3.82299
3.96367
4.1348
4.34597
4.60901
4.93725
5.34291
5.82666
6.35448
2.72248
2.7237
2.72618
2.72995
2.73508
2.7416
2.74959
2.75908
2.77015
2.78282
2.79715
2.8132
2.83102
2.85068
2.87227
2.89586
2.92158
2.94955
2.97993
3.01291
3.0487
3.08759
3.1299
3.17603
3.22649
3.28191
3.34315
3.41138
3.48824
3.57607
3.6783
3.79977
3.94738
4.13078
4.36351
4.66448
5.06073
5.58867
6.29029
7.19206
2.69653
2.69775
2.70021
2.70397
2.70907
2.71557
2.72352
2.73298
2.74399
2.75659
2.77082
2.78675
2.80441
2.82388
2.84523
2.86854
2.89392
2.9215
2.95143
2.9839
3.01913
3.05738
3.09899
3.14435
3.19397
3.2485
3.30882
3.37613
3.45216
3.53943
3.64162
3.7641
3.91468
4.10469
4.35095
4.6796
5.1349
5.79516
6.80536
8.42947
4.83809
4.84705
4.85516
4.86236
4.86862
4.8739
4.87816
4.88137
4.88353
4.88461
4.88461
4.88353
4.88137
4.87816
4.8739
4.86862
4.86236
4.85516
4.84705
4.83809
4.65793
4.66675
4.67473
4.68183
4.68799
4.69319
4.69738
4.70055
4.70267
4.70373
4.70373
4.70267
4.70055
4.69738
4.69319
4.68799
4.68183
4.67473
4.66675
4.65793
4.50312
4.51189
4.51984
4.52691
4.53305
4.53823
4.5424
4.54556
4.54767
4.54873
4.54873
4.54767
4.54556
4.5424
4.53823
4.53305
4.52691
4.51984
4.51189
4.50312
4.37129
4.38013
4.38814
4.39526
4.40145
4.40667
4.41088
4.41406
4.41619
4.41726
4.41726
4.41619
4.41406
4.41088
4.40667
4.40145
4.39526
4.38814
4.38013
4.37129
4.26019
4.2692
4.27736
4.28463
4.29094
4.29626
4.30056
4.30381
4.30598
4.30707
4.30707
4.30598
4.30381
4.30056
4.29626
4.29094
4.28463
4.27736
4.2692
4.26019
4.16766
4.17693
4.18534
4.19282
4.19932
4.20481
4.20924
4.21259
4.21484
4.21596
4.21596
4.21484
4.21259
4.20924
4.20481
4.19932
4.19282
4.18534
4.17693
4.16766
4.09161
4.10123
4.10995
4.11772
4.12448
4.13019
4.1348
4.13828
4.14061
4.14178
4.14178
4.14061
4.13828
4.1348
4.13019
4.12448
4.11772
4.10995
4.10123
4.09161
4.03003
4.04008
4.0492
4.05732
4.06439
4.07035
4.07518
4.07882
4.08127
4.08249
4.08249
4.08127
4.07882
4.07518
4.07035
4.06439
4.05732
4.0492
4.04008
4.03003
3.98107
3.99161
4.00118
4.0097
4.01712
4.02339
4.02846
4.03229
4.03486
4.03615
4.03615
4.03486
4.03229
4.02846
4.02339
4.01712
4.0097
4.00118
3.99161
3.98107
3.94299
3.95408
3.96415
3.97313
3.98094
3.98754
3.99288
3.99692
3.99963
4.00099
4.00099
3.99963
3.99692
3.99288
3.98754
3.98094
3.97313
3.96415
3.95408
3.94299
3.91427
3.92596
3.93657
3.94604
3.95428
3.96124
3.96687
3.97113
3.97399
3.97542
3.97542
3.97399
3.97113
3.96687
3.96124
3.95428
3.94604
3.93657
3.92596
3.91427
3.89356
3.90589
3.91709
3.92708
3.93577
3.94312
3.94907
3.95357
3.95658
3.9581
3.9581
3.95658
3.95357
3.94907
3.94312
3.93577
3.92708
3.91709
3.90589
3.89356
3.87972
3.89274
3.90456
3.91511
3.92429
3.93205
3.93833
3.94308
3.94627
3.94787
3.94787
3.94627
3.94308
3.93833
3.93205
3.92429
3.91511
3.90456
3.89274
3.87972
3.8718
3.88556
3.89806
3.9092
3.9189
3.9271
3.93374
3.93876
3.94212
3.94381
3.94381
3.94212
3.93876
3.93374
3.9271
3.9189
3.9092
3.89806
3.88556
3.8718
3.86905
3.88361
3.89683
3.90861
3.91888
3.92755
3.93456
3.93987
3.94342
3.94521
3.94521
3.94342
3.93987
3.93456
3.92755
3.91888
3.90861
3.89683
3.88361
3.86905
3.87088
3.88631
3.90032
3.9128
3.92367
3.93285
3.94027
3.94588
3.94964
3.95153
3.95153
3.94964
3.94588
3.94027
3.93285
3.92367
3.9128
3.90032
3.88631
3.87088
3.87687
3.89326
3.90812
3.92137
3.9329
3.94262
3.95049
3.95643
3.96041
3.96241
3.96241
3.96041
3.95643
3.95049
3.94262
3.9329
3.92137
3.90812
3.89326
3.87687
3.88673
3.90417
3.91999
3.93408
3.94633
3.95666
3.965
3.9713
3.97552
3.97763
3.97763
3.97552
3.9713
3.965
3.95666
3.94633
3.93408
3.91999
3.90417
3.88673
3.9003
3.91893
3.9358
3.95082
3.96386
3.97485
3.98371
3.9904
3.99488
3.99712
3.99712
3.99488
3.9904
3.98371
3.97485
3.96386
3.95082
3.9358
3.91893
3.9003
3.91755
3.9375
3.95557
3.97161
3.98554
3.99725
4.00668
4.01379
4.01854
4.02093
4.02093
4.01854
4.01379
4.00668
3.99725
3.98554
3.97161
3.95557
3.9375
3.91755
3.93855
3.96001
3.97941
3.99661
4.0115
4.02401
4.03406
4.04163
4.04668
4.04921
4.04921
4.04668
4.04163
4.03406
4.02401
4.0115
3.99661
3.97941
3.96001
3.93855
3.96352
3.98668
4.00758
4.02607
4.04204
4.05541
4.06614
4.07419
4.07956
4.08224
4.08224
4.07956
4.07419
4.06614
4.05541
4.04204
4.02607
4.00758
3.98668
3.96352
3.99277
4.01788
4.04048
4.06042
4.07757
4.09189
4.10333
4.1119
4.11761
4.12045
4.12045
4.11761
4.1119
4.10333
4.09189
4.07757
4.06042
4.04048
4.01788
3.99277
4.02679
4.05413
4.07866
4.10021
4.11867
4.13401
4.14622
4.15533
4.16138
4.16439
4.16439
4.16138
4.15533
4.14622
4.13401
4.11867
4.10021
4.07866
4.05413
4.02679
4.06623
4.09614
4.12286
4.1462
4.1661
4.18252
4.19552
4.20517
4.21155
4.21472
4.21472
4.21155
4.20517
4.19552
4.18252
4.1661
4.1462
4.12286
4.09614
4.06623
4.11196
4.14485
4.17406
4.19941
4.22082
4.23835
4.2521
4.26224
4.26891
4.27222
4.27222
4.26891
4.26224
4.2521
4.23835
4.22082
4.19941
4.17406
4.14485
4.11196
4.16515
4.20151
4.23355
4.26106
4.28403
4.30262
4.31705
4.32758
4.33446
4.33785
4.33785
4.33446
4.32758
4.31705
4.30262
4.28403
4.26106
4.23355
4.20151
4.16515
4.22732
4.26775
4.30295
4.33275
4.35725
4.37676
4.39168
4.40243
4.40937
4.41278
4.41278
4.40937
4.40243
4.39168
4.37676
4.35725
4.33275
4.30295
4.26775
4.22732
4.30052
4.34569
4.38439
4.41652
4.44238
4.46251
4.47758
4.48824
4.49502
4.49831
4.49831
4.49502
4.48824
4.47758
4.46251
4.44238
4.41652
4.38439
4.34569
4.30052
4.38746
4.43816
4.48064
4.51498
4.54179
4.562
4.57665
4.58671
4.59295
4.59594
4.59594
4.59295
4.58671
4.57665
4.562
4.54179
4.51498
4.48064
4.43816
4.38746
4.49176
4.54892
4.59536
4.63147
4.65842
4.67775
4.69105
4.69973
4.70489
4.70728
4.70728
4.70489
4.69973
4.69105
4.67775
4.65842
4.63147
4.59536
4.54892
4.49176
4.61847
4.68315
4.7334
4.77025
4.79584
4.81269
4.82318
4.82931
4.83259
4.83398
4.83398
4.83259
4.82931
4.82318
4.81269
4.79584
4.77025
4.7334
4.68315
4.61847
4.77477
4.84806
4.90124
4.93668
4.95825
4.97
4.97547
4.97739
4.97768
4.97754
4.97754
4.97768
4.97739
4.97547
4.97
4.95825
4.93668
4.90124
4.84806
4.77477
4.97128
5.05405
5.10762
5.13736
5.15031
5.15293
5.15019
5.14562
5.14147
5.13909
5.13909
5.14147
5.14562
5.15019
5.15293
5.15031
5.13736
5.10762
5.05405
4.97128
5.22467
5.31657
5.36428
5.38009
5.37679
5.3642
5.34889
5.3349
5.32457
5.31914
5.31914
5.32457
5.3349
5.34889
5.3642
5.37679
5.38009
5.36428
5.31657
5.22467
5.56329
5.65967
5.6868
5.67325
5.64144
5.60512
5.57174
5.545
5.52661
5.51729
5.51729
5.52661
5.545
5.57174
5.60512
5.64144
5.67325
5.6868
5.65967
5.56329
6.04223
6.12278
6.09457
6.02349
5.9449
5.87412
5.81669
5.77399
5.74593
5.73206
5.73206
5.74593
5.77399
5.81669
5.87412
5.9449
6.02349
6.09457
6.12278
6.04223
6.79018
6.77105
6.60569
6.42961
6.28074
6.16472
6.07858
6.01805
5.97963
5.96099
5.96099
5.97963
6.01805
6.07858
6.16472
6.28074
6.42961
6.60569
6.77105
6.79018
8.19126
7.69549
7.21353
6.8688
6.62986
6.46387
6.34898
6.2717
6.22393
6.20108
6.20108
6.22393
6.2717
6.34898
6.46387
6.62986
6.8688
7.21353
7.69549
8.19126
11.819
8.87271
7.81388
7.27598
6.95707
6.75278
6.61766
6.52914
6.47524
6.44968
6.44968
6.47524
6.52914
6.61766
6.75278
6.95707
7.27598
7.81388
8.87271
11.819
4.82834
4.81785
4.80669
4.79492
4.7826
4.7698
4.75657
4.74299
4.72911
4.71497
4.70064
4.68617
4.67161
4.65702
4.64247
4.62799
4.61364
4.59948
4.58555
4.57189
4.55854
4.54556
4.53296
4.52079
4.50909
4.49789
4.48721
4.47708
4.46754
4.45861
4.45032
4.44268
4.43571
4.42944
4.42388
4.41903
4.41491
4.41154
4.40899
4.40746
4.64833
4.63801
4.62703
4.61545
4.60333
4.59074
4.57774
4.56439
4.55075
4.53688
4.52283
4.50864
4.49438
4.4801
4.46586
4.4517
4.43768
4.42384
4.41023
4.39691
4.38389
4.37123
4.35896
4.34712
4.33574
4.32484
4.31447
4.30464
4.29539
4.28673
4.27869
4.2713
4.26456
4.2585
4.25312
4.24846
4.24452
4.24134
4.23902
4.23772
4.49356
4.4833
4.47237
4.46086
4.44881
4.43631
4.4234
4.41016
4.39664
4.3829
4.369
4.35499
4.34092
4.32684
4.3128
4.29886
4.28506
4.27145
4.25809
4.245
4.23224
4.21983
4.20782
4.19623
4.1851
4.17446
4.16433
4.15475
4.14573
4.1373
4.12948
4.12229
4.11574
4.10986
4.10466
4.10015
4.09636
4.09331
4.09107
4.08977
4.36167
4.35134
4.34035
4.32877
4.31666
4.3041
4.29115
4.27787
4.26433
4.25058
4.2367
4.22273
4.20872
4.19471
4.18076
4.16691
4.15323
4.13975
4.12652
4.11359
4.10098
4.08874
4.0769
4.06549
4.05455
4.04409
4.03416
4.02476
4.01592
4.00768
4.00003
3.99301
3.98663
3.98089
3.97583
3.97144
3.96775
3.96477
3.96256
3.96125
4.2504
4.23988
4.2287
4.21693
4.20463
4.19187
4.17873
4.16527
4.15155
4.13765
4.12362
4.10954
4.09544
4.08137
4.06737
4.0535
4.03981
4.02634
4.01314
4.00024
3.98769
3.97552
3.96377
3.95246
3.94162
3.93128
3.92147
3.9122
3.90349
3.89538
3.88786
3.88096
3.8747
3.86908
3.86412
3.85982
3.85619
3.85326
3.85106
3.84975
4.15759
4.14677
4.13528
4.12319
4.11056
4.09748
4.084
4.07021
4.05618
4.04197
4.02764
4.01328
3.99894
3.98465
3.97047
3.95643
3.9426
3.92901
3.91571
3.90274
3.89014
3.87794
3.86617
3.85487
3.84405
3.83375
3.82399
3.81478
3.80614
3.7981
3.79066
3.78385
3.77767
3.77212
3.76723
3.76299
3.75941
3.75651
3.75433
3.75303
4.08115
4.06994
4.05803
4.0455
4.03242
4.01888
4.00495
3.99069
3.9762
3.96153
3.94677
3.93197
3.91722
3.90257
3.88805
3.87371
3.8596
3.84576
3.83223
3.81907
3.8063
3.79396
3.78207
3.77068
3.7598
3.74945
3.73966
3.73043
3.7218
3.71378
3.70637
3.69958
3.69344
3.68793
3.68308
3.67888
3.67533
3.67246
3.67031
3.66903
4.01912
4.00741
3.99498
3.98192
3.96829
3.95417
3.93966
3.92482
3.90973
3.89448
3.87913
3.86377
3.84847
3.8333
3.8183
3.80351
3.78898
3.77475
3.76088
3.7474
3.73434
3.72175
3.70965
3.69806
3.68702
3.67654
3.66663
3.65733
3.64863
3.64056
3.63312
3.62632
3.62016
3.61466
3.60982
3.60563
3.6021
3.59926
3.59714
3.5959
3.96962
3.95734
3.94432
3.93062
3.91634
3.90156
3.88636
3.87082
3.85503
3.83907
3.82303
3.80697
3.79099
3.77516
3.75954
3.74417
3.72909
3.71436
3.70002
3.6861
3.67264
3.65969
3.64726
3.63539
3.6241
3.61339
3.6033
3.59384
3.58501
3.57682
3.5693
3.56243
3.55622
3.55069
3.54582
3.54163
3.53811
3.53529
3.53322
3.53203
3.93095
3.91804
3.90435
3.88995
3.87494
3.85939
3.84341
3.82708
3.81048
3.79372
3.77686
3.76001
3.74324
3.72663
3.71027
3.6942
3.67846
3.6631
3.64817
3.6337
3.61975
3.60633
3.59349
3.58124
3.5696
3.55859
3.54824
3.53854
3.52951
3.52116
3.51349
3.50651
3.50021
3.49461
3.48969
3.48547
3.48195
3.47916
3.47713
3.47599
3.90159
3.88799
3.87356
3.85839
3.84257
3.82619
3.80935
3.79214
3.77465
3.75698
3.73922
3.72147
3.70381
3.68633
3.66912
3.65224
3.63572
3.61964
3.60402
3.58892
3.57436
3.5604
3.54705
3.53433
3.52228
3.51089
3.5002
3.49021
3.48092
3.47234
3.46448
3.45733
3.45091
3.4452
3.44021
3.43595
3.43241
3.42963
3.42765
3.42656
3.88018
3.86583
3.85061
3.83461
3.81792
3.80063
3.78286
3.76469
3.74622
3.72757
3.70883
3.69009
3.67146
3.65302
3.63487
3.61708
3.59971
3.58281
3.56642
3.55059
3.53535
3.52076
3.50682
3.49357
3.48103
3.4692
3.45811
3.44776
3.43816
3.4293
3.42121
3.41386
3.40727
3.40143
3.39634
3.39201
3.38845
3.38567
3.38373
3.3827
3.86559
3.85044
3.83437
3.81747
3.79984
3.78158
3.7628
3.74359
3.72408
3.70437
3.68456
3.66476
3.64507
3.6256
3.60644
3.58767
3.56936
3.55156
3.53432
3.5177
3.50172
3.48642
3.47184
3.45799
3.44489
3.43257
3.42103
3.41027
3.40031
3.39114
3.38276
3.37518
3.36839
3.36239
3.35719
3.35278
3.34917
3.34639
3.34448
3.34351
3.85687
3.84085
3.82387
3.806
3.78736
3.76805
3.74819
3.72788
3.70725
3.68639
3.66544
3.64451
3.6237
3.60313
3.58288
3.56307
3.54375
3.52499
3.50684
3.48935
3.47257
3.45652
3.44123
3.42673
3.41304
3.40018
3.38814
3.37693
3.36657
3.35705
3.34836
3.34051
3.3335
3.32732
3.32198
3.31747
3.31381
3.31102
3.30914
3.30821
3.85325
3.8363
3.81832
3.79941
3.77968
3.75925
3.73822
3.71673
3.69488
3.67282
3.65065
3.62851
3.60651
3.58477
3.56338
3.54246
3.52207
3.5023
3.48319
3.46479
3.44714
3.43029
3.41426
3.39908
3.38475
3.3713
3.35873
3.34705
3.33625
3.32635
3.31733
3.30919
3.30194
3.29556
3.29006
3.28545
3.28172
3.27891
3.27705
3.27615
3.85413
3.83617
3.81711
3.79707
3.77616
3.7545
3.73222
3.70945
3.68631
3.66294
3.63948
3.61606
3.5928
3.56981
3.54722
3.52513
3.50363
3.48279
3.46267
3.44332
3.42478
3.40709
3.39028
3.37437
3.35938
3.34532
3.33219
3.32001
3.30876
3.29845
3.28908
3.28064
3.27312
3.26653
3.26087
3.25613
3.25233
3.2495
3.24764
3.24677
3.85908
3.84
3.81976
3.79847
3.77627
3.75328
3.72963
3.70548
3.68095
3.65619
3.63135
3.60655
3.58195
3.55766
3.53381
3.51049
3.48783
3.46588
3.4447
3.42436
3.40489
3.38634
3.36872
3.35207
3.33639
3.3217
3.30799
3.29529
3.28357
3.27285
3.26311
3.25435
3.24656
3.23975
3.23391
3.22905
3.22517
3.22229
3.22043
3.21957
3.86779
3.84747
3.82591
3.80324
3.77961
3.75516
3.73003
3.70437
3.67834
3.65208
3.62575
3.5995
3.57348
3.54781
3.52262
3.49803
3.47414
3.45104
3.42877
3.40741
3.38699
3.36754
3.3491
3.33168
3.3153
3.29996
3.28567
3.27243
3.26024
3.24909
3.23898
3.22989
3.22183
3.21479
3.20877
3.20377
3.1998
3.19688
3.19501
3.19416
3.88006
3.85836
3.83533
3.81113
3.78591
3.75984
3.73307
3.70577
3.67809
3.65021
3.62229
3.59448
3.56694
3.53982
3.51323
3.48731
3.46215
3.43784
3.41445
3.39203
3.37063
3.35027
3.33099
3.31279
3.2957
3.27971
3.26483
3.25105
3.23838
3.2268
3.21631
3.20689
3.19855
3.19128
3.18508
3.17994
3.17589
3.17291
3.17102
3.17017
3.89586
3.87258
3.84789
3.82197
3.79497
3.7671
3.73851
3.70939
3.67992
3.65027
3.62062
3.59114
3.56199
3.53332
3.50526
3.47794
3.45145
3.4259
3.40136
3.37786
3.35545
3.33417
3.31403
3.29505
3.27723
3.26059
3.24511
3.2308
3.21765
3.20564
3.19477
3.18503
3.17642
3.16892
3.16253
3.15725
3.1531
3.15007
3.14815
3.14728
3.91521
3.89015
3.86358
3.83569
3.80669
3.77678
3.74616
3.71503
3.68357
3.65199
3.62047
3.58919
3.55831
3.528
3.49838
3.46959
3.44174
3.4149
3.38916
3.36455
3.34112
3.3189
3.2979
3.27813
3.25959
3.2423
3.22623
3.21139
3.19775
3.18533
3.17409
3.16403
3.15514
3.14741
3.14084
3.13543
3.13118
3.12809
3.12613
3.12525
3.93828
3.91118
3.88245
3.85232
3.82103
3.78881
3.7559
3.72252
3.68887
3.65517
3.62161
3.58837
3.55564
3.52358
3.49232
3.46199
3.4327
3.40454
3.37756
3.35183
3.32736
3.30419
3.28232
3.26176
3.24251
3.22457
3.20792
3.19255
3.17845
3.16561
3.15401
3.14364
3.13448
3.12654
3.11979
3.11424
3.10989
3.10673
3.10474
3.10383
3.96536
3.93591
3.90468
3.87196
3.83804
3.80319
3.76769
3.73177
3.69567
3.65962
3.62382
3.58846
3.55374
3.51981
3.48681
3.45488
3.4241
3.39456
3.36632
3.33944
3.31392
3.28979
3.26706
3.24572
3.22576
3.20717
3.18995
3.17407
3.15952
3.14628
3.13433
3.12365
3.11424
3.10608
3.09917
3.09349
3.08904
3.08581
3.08377
3.08284
3.99687
3.96468
3.93054
3.89481
3.85784
3.81996
3.78148
3.74269
3.70385
3.66519
3.62692
3.58926
3.55239
3.51647
3.48164
3.44801
3.41568
3.38473
3.35521
3.32715
3.30058
3.27549
3.2519
3.22978
3.20912
3.18991
3.17213
3.15575
3.14076
3.12714
3.11485
3.10389
3.09424
3.08587
3.0788
3.07299
3.06844
3.06515
3.06306
3.0621
4.03339
3.99799
3.96044
3.92117
3.88063
3.83922
3.79732
3.75525
3.71331
3.67173
3.63076
3.59059
3.5514
3.51335
3.47657
3.44118
3.40725
3.37485
3.34401
3.31477
3.28713
3.26109
3.23664
3.21376
3.19242
3.17261
3.15429
3.13744
3.12203
3.10803
3.09543
3.0842
3.07431
3.06576
3.05853
3.0526
3.04796
3.04459
3.04246
3.04147
4.0757
4.03651
3.9949
3.95143
3.90667
3.86112
3.81524
3.76941
3.72395
3.67912
3.63515
3.59224
3.55055
3.51023
3.47141
3.43418
3.39859
3.3647
3.33254
3.30211
3.27341
3.24643
3.22113
3.19751
3.17551
3.15511
3.13627
3.11897
3.10316
3.08883
3.07593
3.06444
3.05434
3.04561
3.03823
3.03219
3.02746
3.02403
3.02184
3.02082
4.12483
4.0811
4.03462
3.98611
3.93631
3.88586
3.83533
3.78515
3.73568
3.6872
3.63991
3.59401
3.54963
3.50691
3.46595
3.4268
3.38951
3.35412
3.32061
3.28899
3.25924
3.23133
3.20522
3.18087
3.15824
3.13729
3.11796
3.10023
3.08405
3.06939
3.05622
3.0445
3.0342
3.02531
3.0178
3.01165
3.00684
3.00334
3.00111
3.00006
4.18215
4.13292
4.08051
4.02588
3.96999
3.91369
3.85765
3.80242
3.74838
3.69578
3.64483
3.59567
3.54842
3.50316
3.45995
3.41883
3.37982
3.3429
3.30806
3.27527
3.24449
3.21568
3.18878
3.16374
3.14051
3.11902
3.09924
3.08111
3.06459
3.04964
3.03622
3.02428
3.01381
3.00477
2.99714
2.9909
2.98601
2.98245
2.98017
2.97909
4.24947
4.19348
4.13375
4.07157
4.00824
3.94486
3.88229
3.82116
3.76186
3.70465
3.64966
3.59697
3.54665
3.49872
3.4532
3.41007
3.36931
3.33088
3.29473
3.2608
3.22902
3.19934
3.17169
3.146
3.1222
3.10022
3.08002
3.06153
3.0447
3.02948
3.01583
3.00371
2.99308
2.98391
2.97618
2.96985
2.96489
2.96127
2.95895
2.95784
4.32921
4.26476
4.19582
4.1242
4.05166
3.97965
3.90927
3.84122
3.7759
3.7135
3.65407
3.59759
3.54403
3.49333
3.44544
3.40028
3.35779
3.31787
3.28045
3.24542
3.21271
3.18221
3.15385
3.12755
3.10323
3.08081
3.06022
3.04141
3.0243
3.00884
2.995
2.98271
2.97195
2.96267
2.95484
2.94844
2.94342
2.93976
2.93739
2.93625
4.42463
4.34939
4.26864
4.18501
4.10092
4.01831
3.93853
3.86235
3.79015
3.72195
3.65768
3.59716
3.54021
3.48668
3.4364
3.38924
3.34506
3.30371
3.26508
3.22902
3.19543
3.16419
3.13518
3.10833
3.08354
3.06072
3.03979
3.02068
3.00333
2.98768
2.97366
2.96124
2.95036
2.94099
2.93309
2.92663
2.92156
2.91785
2.91544
2.91429
4.54016
4.45089
4.35463
4.25544
4.15669
4.06096
3.96985
3.88416
3.8041
3.72949
3.65999
3.59522
3.5348
3.47842
3.4258
3.3767
3.33091
3.28822
3.24847
3.21148
3.17709
3.14518
3.11561
3.08827
3.06306
3.03989
3.01867
2.99932
2.98176
2.96594
2.95179
2.93925
2.92828
2.91884
2.91088
2.90437
2.89926
2.89551
2.89308
2.8919
4.68201
4.57397
4.4569
4.33713
4.21957
4.10751
4.00276
3.90598
3.81706
3.73544
3.66041
3.59126
3.52736
3.4682
3.41333
3.36241
3.31514
3.27124
3.23049
3.19267
3.1576
3.12512
3.09507
3.06733
3.04177
3.01831
2.99684
2.97729
2.95957
2.94361
2.92934