/*--------------------------------*- C++ -*----------------------------------*\
  =========                 |
  \\      /  F ield         | OpenFOAM: The Open Source CFD Toolbox
   \\    /   O peration     | Website:  https://openfoam.org
    \\  /    A nd           | Version:  6
     \\/     M anipulation  |
\*---------------------------------------------------------------------------*/
FoamFile
{
    version     2.0;
    format      ascii;
    class       surfaceScalarField;
    location    "70";
    object      phi;
}
// * * * * * * * * * * * * * * * * * * * * * * * * * * * * * * * * * * * * * //

dimensions      [0 3 -1 0 0 0 0];

internalField   nonuniform List<scalar> 
17340
(
-5.34937e-11
5.34929e-11
-5.47564e-11
1.26273e-12
-5.24414e-11
-2.31505e-12
-5.64557e-11
4.01436e-12
-6.45801e-11
8.12437e-12
-7.4953e-11
1.03729e-11
-8.64648e-11
1.15118e-11
-9.85451e-11
1.20803e-11
-1.10924e-10
1.23787e-11
-1.23478e-10
1.25543e-11
-1.36154e-10
1.26757e-11
-1.48927e-10
1.27729e-11
-1.61783e-10
1.2856e-11
-1.74707e-10
1.29243e-11
-1.87678e-10
1.29707e-11
-2.00662e-10
1.29841e-11
-2.13613e-10
1.29514e-11
-2.26471e-10
1.28578e-11
-2.3916e-10
1.26886e-11
-2.51589e-10
1.24294e-11
-2.63656e-10
1.20669e-11
-2.75246e-10
1.15902e-11
-2.86237e-10
1.09913e-11
-2.96503e-10
1.02661e-11
-3.05918e-10
9.41495e-12
-3.14361e-10
8.44237e-12
-3.21717e-10
7.35626e-12
-3.27882e-10
6.1652e-12
-3.32757e-10
4.87523e-12
-3.36249e-10
3.49119e-12
-3.38288e-10
2.0393e-12
-3.38743e-10
4.55512e-13
-3.37356e-10
-1.38786e-12
-3.33932e-10
-3.42314e-12
-3.2833e-10
-5.60285e-12
-3.20448e-10
-7.8819e-12
-3.10228e-10
-1.02196e-11
-2.97647e-10
-1.25811e-11
-2.82712e-10
-1.49347e-11
-1.72503e-11
-2.65462e-10
5.87791e-12
4.7615e-11
-3.50701e-11
4.22107e-11
-7.70807e-11
3.96956e-11
-1.14012e-10
4.09458e-11
-1.48416e-10
4.25278e-11
-1.81804e-10
4.37616e-11
-2.14894e-10
4.46019e-11
-2.47962e-10
4.51483e-11
-2.81089e-10
4.55051e-11
-3.14282e-10
4.57477e-11
-3.47525e-10
4.59186e-11
-3.80785e-10
4.60325e-11
-4.14011e-10
4.60826e-11
-4.47134e-10
4.60469e-11
-4.80056e-10
4.5893e-11
-5.12653e-10
4.55814e-11
-5.44771e-10
4.5069e-11
-5.76225e-10
4.43116e-11
-6.06803e-10
4.32666e-11
-6.36268e-10
4.18948e-11
-6.64364e-10
4.0163e-11
-6.9082e-10
3.80461e-11
-7.15358e-10
3.55289e-11
-7.37699e-10
3.26075e-11
-7.57574e-10
2.929e-11
-7.74728e-10
2.55958e-11
-7.88922e-10
2.15508e-11
-7.99939e-10
1.71816e-11
-8.07571e-10
1.25073e-11
-8.1162e-10
7.54073e-12
-8.11883e-10
2.30184e-12
-8.08112e-10
-3.31491e-12
-7.99925e-10
-9.57578e-12
-7.87017e-10
-1.63303e-11
-7.69259e-10
-2.33612e-11
-7.46597e-10
-3.05441e-11
-7.19038e-10
-3.77781e-11
-6.86645e-10
-4.49743e-11
-6.49527e-10
-5.20525e-11
-5.89385e-11
-6.07839e-10
-3.71157e-12
5.13265e-11
-4.96272e-11
8.81264e-11
-1.06158e-10
9.62263e-11
-1.61932e-10
9.67199e-11
-2.15522e-10
9.61174e-11
-2.67426e-10
9.56663e-11
-3.18291e-10
9.54665e-11
-3.68542e-10
9.53992e-11
-4.18401e-10
9.53641e-11
-4.67955e-10
9.53021e-11
-5.17207e-10
9.51705e-11
-5.661e-10
9.4925e-11
-6.1453e-10
9.45127e-11
-6.62353e-10
9.38702e-11
-7.09386e-10
9.29261e-11
-7.55409e-10
9.16037e-11
-8.00165e-10
8.98252e-11
-8.43368e-10
8.7515e-11
-8.84705e-10
8.46038e-11
-9.23842e-10
8.10318e-11
-9.60431e-10
7.67519e-11
-9.94118e-10
7.17329e-11
-1.02455e-09
6.59614e-11
-1.05139e-09
5.94434e-11
-1.0743e-09
5.22043e-11
-1.09299e-09
4.42858e-11
-1.10718e-09
3.57387e-11
-1.11661e-09
2.66117e-11
-1.12104e-09
1.69412e-11
-1.12024e-09
6.73345e-12
-1.1139e-09
-4.03738e-12
-1.10161e-09
-1.56041e-11
-1.08324e-09
-2.79467e-11
-1.05879e-09
-4.07781e-11
-1.0283e-09
-5.38538e-11
-9.91852e-10
-6.69878e-11
-9.49604e-10
-8.00266e-11
-9.01739e-10
-9.28385e-11
-8.48483e-10
-1.05309e-10
-1.17333e-10
-7.90088e-10
-2.42264e-11
7.55529e-11
-7.44543e-11
1.38354e-10
-1.36127e-10
1.57899e-10
-2.01249e-10
1.61841e-10
-2.66571e-10
1.6144e-10
-3.31144e-10
1.60239e-10
-3.94822e-10
1.59144e-10
-4.57671e-10
1.58249e-10
-5.19762e-10
1.57455e-10
-5.81103e-10
1.56643e-10
-6.41635e-10
1.55702e-10
-7.01239e-10
1.54529e-10
-7.59743e-10
1.53017e-10
-8.16931e-10
1.51058e-10
-8.72545e-10
1.4854e-10
-9.26294e-10
1.45353e-10
-9.77857e-10
1.41388e-10
-1.02689e-09
1.36546e-10
-1.07303e-09
1.30742e-10
-1.1159e-09
1.23904e-10
-1.15513e-09
1.15985e-10
-1.19035e-09
1.06956e-10
-1.22121e-09
9.68168e-11
-1.24736e-09
8.55927e-11
-1.26849e-09
7.33339e-11
-1.28431e-09
6.01112e-11
-1.29458e-09
4.6004e-11
-1.29905e-09
3.10815e-11
-1.29749e-09
1.53848e-11
-1.28964e-09
-1.119e-12
-1.27509e-09
-1.85889e-11
-1.25374e-09
-3.69512e-11
-1.22579e-09
-5.58994e-11
-1.19143e-09
-7.51352e-11
-1.15088e-09
-9.44019e-11
-1.10439e-09
-1.13485e-10
-1.05221e-09
-1.32206e-10
-9.94626e-10
-1.50419e-10
-9.31934e-10
-1.68e-10
-1.84841e-10
-8.64427e-10
-3.16347e-11
1.07188e-10
-8.77754e-11
1.94495e-10
-1.54993e-10
2.25117e-10
-2.26714e-10
2.33562e-10
-2.99708e-10
2.34434e-10
-3.72543e-10
2.33074e-10
-4.44631e-10
2.31232e-10
-5.15735e-10
2.29353e-10
-5.8573e-10
2.2745e-10
-6.54497e-10
2.2541e-10
-7.21884e-10
2.2309e-10
-7.87698e-10
2.20343e-10
-8.51702e-10
2.17021e-10
-9.13622e-10
2.12979e-10
-9.73156e-10
2.08074e-10
-1.02997e-09
2.02169e-10
-1.08373e-09
1.9514e-10
-1.13405e-09
1.86876e-10
-1.1806e-09
1.77284e-10
-1.22299e-09
1.66297e-10
-1.26088e-09
1.53874e-10
-1.29393e-09
1.40003e-10
-1.32181e-09
1.24703e-10
-1.34425e-09
1.08027e-10
-1.36097e-09
9.00546e-11
-1.37175e-09
7.08898e-11
-1.37638e-09
5.06388e-11
-1.37468e-09
2.93798e-11
-1.36641e-09
7.1175e-12
-1.35129e-09
-1.62418e-11
-1.3292e-09
-4.06757e-11
-1.3004e-09
-6.57516e-11
-1.2652e-09
-9.10989e-11
-1.22393e-09
-1.16403e-10
-1.17694e-09
-1.41397e-10
-1.12457e-09
-1.65859e-10
-1.06716e-09
-1.89615e-10
-1.00505e-09
-2.12529e-10
-9.38551e-10
-2.34496e-10
-2.5543e-10
-8.67962e-10
-3.27339e-11
1.39922e-10
-9.24543e-11
2.54215e-10
-1.63654e-10
2.96317e-10
-2.39584e-10
3.09492e-10
-3.17056e-10
3.11906e-10
-3.94521e-10
3.1054e-10
-4.71209e-10
3.0792e-10
-5.46701e-10
3.04845e-10
-6.20723e-10
3.01472e-10
-6.93041e-10
2.97728e-10
-7.63418e-10
2.93466e-10
-8.31593e-10
2.88518e-10
-8.97284e-10
2.82712e-10
-9.60184e-10
2.75879e-10
-1.01997e-09
2.6786e-10
-1.07631e-09
2.58507e-10
-1.12886e-09
2.47689e-10
-1.17728e-09
2.35297e-10
-1.22124e-09
2.21246e-10
-1.26042e-09
2.05479e-10
-1.29452e-09
1.87973e-10
-1.32326e-09
1.6874e-10
-1.34638e-09
1.47825e-10
-1.36366e-09
1.25311e-10
-1.37492e-09
1.01309e-10
-1.37998e-09
7.59544e-11
-1.37871e-09
4.93649e-11
-1.37094e-09
2.16084e-11
-1.35647e-09
-7.34626e-12
-1.33521e-09
-3.7508e-11
-1.30739e-09
-6.84965e-11
-1.27335e-09
-9.97848e-11
-1.23349e-09
-1.30957e-10
-1.18822e-09
-1.61675e-10
-1.13796e-09
-1.9166e-10
-1.08312e-09
-2.20694e-10
-1.02412e-09
-2.48623e-10
-9.61302e-10
-2.75345e-10
-8.94997e-10
-3.008e-10
-3.2495e-10
-8.25477e-10
-3.19655e-11
1.71887e-10
-9.20617e-11
3.14312e-10
-1.64299e-10
3.68555e-10
-2.41562e-10
3.86755e-10
-3.20489e-10
3.90832e-10
-3.99409e-10
3.8946e-10
-4.77431e-10
3.85942e-10
-5.54018e-10
3.81432e-10
-6.28789e-10
3.76243e-10
-7.01425e-10
3.70363e-10
-7.71623e-10
3.63664e-10
-8.3908e-10
3.55976e-10
-9.03488e-10
3.4712e-10
-9.64532e-10
3.36923e-10
-1.0219e-09
3.25223e-10
-1.07526e-09
3.11874e-10
-1.12433e-09
2.96754e-10
-1.16879e-09
2.79764e-10
-1.20839e-09
2.60837e-10
-1.24284e-09
2.39936e-10
-1.27193e-09
2.17063e-10
-1.29545e-09
1.92255e-10
-1.31321e-09
1.65588e-10
-1.32507e-09
1.37175e-10
-1.33092e-09
1.07157e-10
-1.33065e-09
7.56868e-11
-1.32417e-09
4.28767e-11
-1.31131e-09
8.74853e-12
-1.29201e-09
-2.66457e-11
-1.26639e-09
-6.31206e-11
-1.23481e-09
-1.0008e-10
-1.19765e-09
-1.36949e-10
-1.15534e-09
-1.73266e-10
-1.10836e-09
-2.08657e-10
-1.05719e-09
-2.42824e-10
-1.00233e-09
-2.75558e-10
-9.44215e-10
-3.06735e-10
-8.83252e-10
-3.36308e-10
-8.19766e-10
-3.64287e-10
-3.9071e-10
-7.54007e-10
-2.98542e-11
2.01741e-10
-8.76907e-11
3.72148e-10
-1.58215e-10
4.39079e-10
-2.34132e-10
4.62672e-10
-3.11855e-10
4.68555e-10
-3.89558e-10
4.67163e-10
-4.66233e-10
4.62617e-10
-5.41251e-10
4.56451e-10
-6.14158e-10
4.4915e-10
-6.84577e-10
4.40782e-10
-7.52168e-10
4.31255e-10
-8.16607e-10
4.20415e-10
-8.77582e-10
4.08095e-10
-9.3479e-10
3.9413e-10
-9.8794e-10
3.78372e-10
-1.03675e-09
3.60689e-10
-1.08098e-09
3.40976e-10
-1.12037e-09
3.19156e-10
-1.15472e-09
2.95185e-10
-1.18383e-09
2.69053e-10
-1.20756e-09
2.4079e-10
-1.22577e-09
2.1046e-10
-1.23834e-09
1.78167e-10
-1.24522e-09
1.44048e-10
-1.24632e-09
1.08264e-10
-1.2416e-09
7.09668e-11
-1.23098e-09
3.22577e-11
-1.21437e-09
-7.86491e-12
-1.19173e-09
-4.92856e-11
-1.16335e-09
-9.14993e-11
-1.12959e-09
-1.33839e-10
-1.09087e-09
-1.75673e-10
-1.04766e-09
-2.16478e-10
-1.00049e-09
-2.55825e-10
-9.49931e-10
-2.93385e-10
-8.9654e-10
-3.28949e-10
-8.4084e-10
-3.62434e-10
-7.8328e-10
-3.93868e-10
-7.24207e-10
-4.23359e-10
-4.51055e-10
-6.63862e-10
-2.65451e-11
2.28286e-10
-8.00633e-11
4.25666e-10
-1.46616e-10
5.05633e-10
-2.18945e-10
5.35e-10
-2.93271e-10
5.4288e-10
-3.67599e-10
5.41491e-10
-4.4081e-10
5.35828e-10
-5.12197e-10
5.27838e-10
-5.81254e-10
5.18207e-10
-6.47573e-10
5.07101e-10
-7.10796e-10
4.94478e-10
-7.70599e-10
4.80219e-10
-8.26685e-10
4.6418e-10
-8.78775e-10
4.46221e-10
-9.26618e-10
4.26215e-10
-9.69986e-10
4.04056e-10
-1.00868e-09
3.79666e-10
-1.04252e-09
3.52995e-10
-1.07136e-09
3.24027e-10
-1.09508e-09
2.9278e-10
-1.11361e-09
2.59311e-10
-1.12685e-09
2.23709e-10
-1.13479e-09
1.861e-10
-1.13738e-09
1.46639e-10
-1.1346e-09
1.05484e-10
-1.12639e-09
6.27558e-11
-1.11265e-09
1.85209e-11
-1.09339e-09
-2.71246e-11
-1.06864e-09
-7.40379e-11
-1.03865e-09
-1.21491e-10
-1.00378e-09
-1.68702e-10
-9.64494e-10
-2.14962e-10
-9.21305e-10
-2.59667e-10
-8.74817e-10
-3.02313e-10
-8.25684e-10
-3.42518e-10
-7.74568e-10
-3.80064e-10
-7.22087e-10
-4.14915e-10
-6.68764e-10
-4.47192e-10
-6.1499e-10
-4.77133e-10
-5.05031e-10
-5.61013e-10
-2.2397e-11
2.50683e-10
-7.00126e-11
4.73282e-10
-1.30781e-10
5.66401e-10
-1.97705e-10
6.01925e-10
-2.66878e-10
6.12053e-10
-3.36148e-10
6.10761e-10
-4.04281e-10
6.0396e-10
-4.70502e-10
5.94059e-10
-5.34267e-10
5.81972e-10
-5.95152e-10
5.67986e-10
-6.528e-10
5.52126e-10
-7.06901e-10
5.3432e-10
-7.57182e-10
5.14461e-10
-8.03401e-10
4.9244e-10
-8.4535e-10
4.68165e-10
-8.82854e-10
4.4156e-10
-9.15766e-10
4.12578e-10
-9.43973e-10
3.81202e-10
-9.67391e-10
3.47445e-10
-9.85962e-10
3.11351e-10
-9.99652e-10
2.73001e-10
-1.00845e-09
2.32504e-10
-1.01235e-09
1.89999e-10
-1.01135e-09
1.45644e-10
-1.00546e-09
9.95916e-11
-9.94619e-10
5.19159e-11
-9.78649e-10
2.55121e-12
-9.57485e-10
-4.82889e-11
-9.31325e-10
-1.00198e-10
-9.00399e-10
-1.52417e-10
-8.65051e-10
-2.0405e-10
-8.25744e-10
-2.54269e-10
-7.83058e-10
-3.02354e-10
-7.37671e-10
-3.47699e-10
-6.90343e-10
-3.89846e-10
-6.41859e-10
-4.28548e-10
-5.92956e-10
-4.63818e-10
-5.44256e-10
-4.95893e-10
-4.96217e-10
-5.25172e-10
-5.52131e-10
-4.49117e-10
-1.77665e-11
2.6845e-10
-5.83387e-11
5.13854e-10
-1.11926e-10
6.19988e-10
-1.72023e-10
6.62022e-10
-2.34685e-10
6.74716e-10
-2.97624e-10
6.73699e-10
-3.59493e-10
6.6583e-10
-4.19455e-10
6.54021e-10
-4.76934e-10
6.39451e-10
-5.31498e-10
6.22549e-10
-5.828e-10
6.03429e-10
-6.30554e-10
5.82073e-10
-6.74515e-10
5.58422e-10
-7.14482e-10
5.32408e-10
-7.50292e-10
5.03974e-10
-7.81816e-10
4.73084e-10
-8.08962e-10
4.39724e-10
-8.31668e-10
4.03908e-10
-8.499e-10
3.65677e-10
-8.63648e-10
3.25099e-10
-8.72918e-10
2.82271e-10
-8.77727e-10
2.37313e-10
-8.78092e-10
1.90364e-10
-8.74016e-10
1.41568e-10
-8.6546e-10
9.10361e-11
-8.52355e-10
3.88105e-11
-8.34665e-10
-1.51385e-11
-8.12245e-10
-7.07097e-11
-7.85174e-10
-1.27268e-10
-7.53699e-10
-1.83892e-10
-7.18183e-10
-2.39567e-10
-6.79122e-10
-2.9333e-10
-6.37154e-10
-3.44321e-10
-5.93043e-10
-3.9181e-10
-5.47662e-10
-4.35227e-10
-5.01932e-10
-4.74278e-10
-4.56727e-10
-5.09023e-10
-4.12789e-10
-5.39831e-10
-3.70661e-10
-5.67299e-10
-5.92124e-10
-3.30668e-10
-1.29464e-11
2.81396e-10
-4.57469e-11
5.46654e-10
-9.11476e-11
6.65388e-10
-1.43358e-10
7.14233e-10
-1.98501e-10
7.29858e-10
-2.54184e-10
7.29383e-10
-3.08962e-10
7.20608e-10
-3.61928e-10
7.06987e-10
-4.1248e-10
6.90002e-10
-4.6018e-10
6.7025e-10
-5.04695e-10
6.47945e-10
-5.45763e-10
6.23141e-10
-5.83171e-10
5.95831e-10
-6.16757e-10
5.65993e-10
-6.46395e-10
5.33612e-10
-6.72001e-10
4.9869e-10
-6.93524e-10
4.61247e-10
-7.10943e-10
4.21328e-10
-7.24264e-10
3.78997e-10
-7.33507e-10
3.34342e-10
-7.38705e-10
2.87469e-10
-7.39891e-10
2.38498e-10
-7.37087e-10
1.8756e-10
-7.30288e-10
1.34768e-10
-7.19427e-10
8.01757e-11
-7.04385e-10
2.37683e-11
-6.851e-10
-3.44235e-11
-6.61498e-10
-9.4312e-11
-6.3365e-10
-1.55116e-10
-6.01759e-10
-2.15782e-10
-5.66189e-10
-2.75137e-10
-5.27474e-10
-3.32045e-10
-4.86311e-10
-3.85485e-10
-4.43543e-10
-4.34578e-10
-4.00157e-10
-4.78613e-10
-3.57219e-10
-5.17216e-10
-3.15744e-10
-5.50498e-10
-2.76599e-10
-5.78976e-10
-2.40422e-10
-6.03476e-10
-6.24938e-10
-2.07608e-10
-8.18299e-12
2.89579e-10
-3.28485e-11
5.7132e-10
-6.94131e-11
7.01953e-10
-1.12998e-10
7.57818e-10
-1.59909e-10
7.76769e-10
-2.07703e-10
7.77177e-10
-2.54842e-10
7.67747e-10
-3.00357e-10
7.52502e-10
-3.43611e-10
7.33255e-10
-3.84161e-10
7.108e-10
-4.21686e-10
6.8547e-10
-4.55945e-10
6.57399e-10
-4.86755e-10
6.26641e-10
-5.13984e-10
5.93222e-10
-5.37543e-10
5.57171e-10
-5.57377e-10
5.18525e-10
-5.7347e-10
4.77339e-10
-5.85827e-10
4.33686e-10
-5.9448e-10
3.87649e-10
-5.99466e-10
3.39329e-10
-6.0083e-10
2.88833e-10
-5.98606e-10
2.36274e-10
-5.92809e-10
1.81763e-10
-5.8342e-10
1.2538e-10
-5.70363e-10
6.71183e-11
-5.53418e-10
6.82305e-12
-5.32482e-10
-5.5359e-11
-5.07656e-10
-1.19138e-10
-4.79004e-10
-1.83768e-10
-4.46681e-10
-2.48105e-10
-4.11053e-10
-3.10765e-10
-3.72697e-10
-3.70401e-10
-3.32374e-10
-4.25808e-10
-2.90991e-10
-4.75962e-10
-2.49645e-10
-5.19959e-10
-2.09546e-10
-5.57315e-10
-1.71831e-10
-5.88212e-10
-1.37489e-10
-6.13318e-10
-1.07258e-10
-6.33708e-10
-6.50584e-10
-8.16124e-11
-3.69025e-12
2.9327e-10
-2.01678e-11
5.87798e-10
-4.75537e-11
7.29339e-10
-8.20507e-11
7.92315e-10
-1.20268e-10
8.14986e-10
-1.59768e-10
8.16677e-10
-1.98944e-10
8.06924e-10
-2.36762e-10
7.9032e-10
-2.72548e-10
7.69041e-10
-3.05847e-10
7.44099e-10
-3.36345e-10
7.15967e-10
-3.63815e-10
6.8487e-10
-3.88101e-10
6.50926e-10
-4.09093e-10
6.14215e-10
-4.26727e-10
5.74804e-10
-4.40971e-10
5.32769e-10
-4.51828e-10
4.88196e-10
-4.59322e-10
4.4118e-10
-4.63493e-10
3.91821e-10
-4.64388e-10
3.40224e-10
-4.62046e-10
2.86491e-10
-4.56491e-10
2.30718e-10
-4.47708e-10
1.7298e-10
-4.35626e-10
1.13298e-10
-4.2012e-10
5.16126e-11
-4.01119e-10
-1.21778e-11
-3.78532e-10
-7.79461e-11
-3.52407e-10
-1.45263e-10
-3.22847e-10
-2.13329e-10
-2.89985e-10
-2.80967e-10
-2.54222e-10
-3.46528e-10
-2.16192e-10
-4.08431e-10
-1.76723e-10
-4.65277e-10
-1.36782e-10
-5.15902e-10
-9.75753e-11
-5.59166e-10
-6.04234e-11
-5.94467e-10
-2.65384e-11
-6.22097e-10
2.99983e-12
-6.42856e-10
2.72861e-11
-6.57994e-10
-6.69092e-10
4.57944e-11
3.69462e-13
2.929e-10
-8.14626e-12
5.96313e-10
-2.62755e-11
7.47468e-10
-5.14541e-11
8.17494e-10
-8.07169e-11
8.44248e-10
-1.11702e-10
8.47662e-10
-1.42757e-10
8.37979e-10
-1.72789e-10
8.20352e-10
-2.0108e-10
7.97332e-10
-2.27157e-10
7.70176e-10
-2.507e-10
7.39511e-10
-2.71497e-10
7.05666e-10
-2.89402e-10
6.68832e-10
-3.04326e-10
6.29138e-10
-3.16217e-10
5.86696e-10
-3.25057e-10
5.41609e-10
-3.30856e-10
4.93995e-10
-3.33648e-10
4.43971e-10
-3.33473e-10
3.91646e-10
-3.30373e-10
3.37124e-10
-3.24379e-10
2.80497e-10
-3.15499e-10
2.21838e-10
-3.03695e-10
1.61177e-10
-2.88845e-10
9.84473e-11
-2.70719e-10
3.34866e-11
-2.49372e-10
-3.35245e-11
-2.24844e-10
-1.02475e-10
-1.97166e-10
-1.7294e-10
-1.6649e-10
-2.44005e-10
-1.3293e-10
-3.14526e-10
-9.69534e-11
-3.82505e-10
-5.92284e-11
-4.46156e-10
-2.05778e-11
-5.03928e-10
1.78714e-11
-5.54351e-10
5.47689e-11
-5.96063e-10
8.87875e-11
-6.28486e-10
1.1867e-10
-6.51979e-10
1.43255e-10
-6.67442e-10
1.61619e-10
-6.76357e-10
-6.80676e-10
1.73203e-10
3.98851e-12
2.88912e-10
2.88442e-12
5.97417e-10
-6.18571e-12
7.56538e-10
-2.20047e-11
8.33313e-10
-4.22152e-11
8.64459e-10
-6.46017e-11
8.70049e-10
-8.74992e-11
8.60876e-10
-1.09764e-10
8.42616e-10
-1.30632e-10
8.18201e-10
-1.49598e-10
7.89142e-10
-1.66332e-10
7.56245e-10
-1.80623e-10
7.19956e-10
-1.92331e-10
6.8054e-10
-2.01377e-10
6.38184e-10
-2.07715e-10
5.93034e-10
-2.11325e-10
5.45219e-10
-2.12221e-10
4.94891e-10
-2.10435e-10
4.42185e-10
-2.06002e-10
3.87213e-10
-1.98952e-10
3.30074e-10
-1.89301e-10
2.70846e-10
-1.77036e-10
2.09573e-10
-1.62108e-10
1.46249e-10
-1.44395e-10
8.07348e-11
-1.23496e-10
1.25874e-11
-9.95327e-11
-5.74879e-11
-7.27484e-11
-1.29259e-10
-4.32311e-11
-2.02458e-10
-1.11015e-11
-2.76135e-10
2.33027e-11
-3.4893e-10
5.94746e-11
-4.18677e-10
9.67819e-11
-4.83463e-10
1.34348e-10
-5.41494e-10
1.70991e-10
-5.90994e-10
2.0547e-10
-6.30542e-10
2.36475e-10
-6.59491e-10
2.62587e-10
-6.78091e-10
2.82522e-10
-6.87377e-10
2.95254e-10
-6.89089e-10
-6.85523e-10
3.00101e-10
7.17495e-12
2.81737e-10
1.27957e-11
5.91797e-10
1.22851e-11
7.57049e-10
5.61826e-12
8.39979e-10
-5.58056e-12
8.75658e-10
-1.93821e-11
8.8385e-10
-3.41659e-11
8.7566e-10
-4.8751e-11
8.57201e-10
-6.23263e-11
8.31776e-10
-7.43447e-11
8.01161e-10
-8.4453e-11
7.66353e-10
-9.24325e-11
7.27936e-10
-9.8142e-11
6.8625e-10
-1.01499e-10
6.41541e-10
-1.02462e-10
5.93997e-10
-1.00995e-10
5.43753e-10
-9.71132e-11
4.91009e-10
-9.08416e-11
4.35913e-10
-8.22031e-11
3.78574e-10
-7.12105e-11
3.19082e-10
-5.78547e-11
2.5749e-10
-4.20859e-11
1.93804e-10
-2.37836e-11
1.27946e-10
-2.75477e-12
5.97059e-11
2.11056e-11
-1.1273e-11
4.76317e-11
-8.4014e-11
7.66337e-11
-1.58261e-10
1.07942e-10
-2.33766e-10
1.41327e-10
-3.0952e-10
1.76343e-10
-3.83945e-10
2.12639e-10
-4.54973e-10
2.49629e-10
-5.20453e-10
2.86371e-10
-5.78236e-10
3.21669e-10
-6.26292e-10
3.54179e-10
-6.63052e-10
3.8245e-10
-6.87762e-10
4.04979e-10
-7.0062e-10
4.20389e-10
-7.02787e-10
4.2757e-10
-6.9627e-10
-6.83713e-10
4.2576e-10
9.87812e-12
2.71859e-10
2.15629e-11
5.80112e-10
2.89327e-11
7.49679e-10
3.09294e-11
8.37983e-10
2.85023e-11
8.78085e-10
2.31726e-11
8.8918e-10
1.64097e-11
8.82423e-10
9.3892e-12
8.64222e-10
2.96115e-12
8.38204e-10
-2.28902e-12
8.06411e-10
-5.97316e-12
7.70037e-10
-7.84338e-12
7.29806e-10
-7.74455e-12
6.86151e-10
-5.5824e-12
6.39379e-10
-1.30244e-12
5.89717e-10
5.11956e-12
5.37331e-10
1.3683e-11
4.82446e-10
2.43779e-11
4.25218e-10
3.71961e-11
3.65756e-10
5.2141e-11
3.04137e-10
6.92401e-11
2.40391e-10
8.85631e-11
1.74481e-10
1.10263e-10
1.06247e-10
1.3455e-10
3.54193e-11
1.61176e-10
-3.78995e-11
1.90024e-10
-1.12861e-10
2.21058e-10
-1.89296e-10
2.54063e-10
-2.66771e-10
2.8876e-10
-3.44217e-10
3.24774e-10
-4.19959e-10
3.61674e-10
-4.91873e-10
3.98797e-10
-5.57576e-10
4.35156e-10
-6.14596e-10
4.69492e-10
-6.60627e-10
5.00338e-10
-6.93898e-10
5.26101e-10
-7.13525e-10
5.45183e-10
-7.19702e-10
5.56129e-10
-7.13733e-10
5.5777e-10
-6.97912e-10
-6.75257e-10
5.49313e-10
1.20989e-11
2.5976e-10
2.91331e-11
5.63078e-10
4.36829e-11
7.35129e-10
5.37523e-11
8.27913e-10
5.96448e-11
8.72192e-10
6.24877e-11
8.86337e-10
6.35498e-11
8.81361e-10
6.394e-11
8.63832e-10
6.4512e-11
8.37632e-10
6.58716e-11
8.05051e-10
6.84385e-11
7.6747e-10
7.24999e-11
7.25745e-10
7.82353e-11
6.80416e-10
8.57563e-11
6.31858e-10
9.51266e-11
5.80347e-10
1.06356e-10
5.26101e-10
1.19462e-10
4.69339e-10
1.34454e-10
4.10226e-10
1.51335e-10
3.48875e-10
1.70118e-10
2.85353e-10
1.90838e-10
2.19671e-10
2.13559e-10
1.51761e-10
2.38393e-10
8.14121e-11
2.65611e-10
8.20228e-12
2.94987e-10
-6.72757e-11
3.26294e-10
-1.44169e-10
3.59455e-10
-2.22456e-10
3.94302e-10
-3.01618e-10
4.30579e-10
-3.80494e-10
4.67929e-10
-4.5731e-10
5.05845e-10
-5.29789e-10
5.43555e-10
-5.95286e-10
5.79974e-10
-6.51014e-10
6.13717e-10
-6.9437e-10
6.43175e-10
-7.23356e-10
6.66619e-10
-7.36969e-10
6.82345e-10
-7.35428e-10
6.88838e-10
-7.20226e-10
6.84904e-10
-6.93978e-10
-6.60115e-10
6.69763e-10
1.38577e-11
2.45902e-10
3.5497e-11
5.41438e-10
5.6479e-11
7.14147e-10
7.39661e-11
8.10426e-10
8.76517e-11
8.58507e-10
9.82683e-11
8.7572e-10
1.06856e-10
8.72773e-10
1.14418e-10
8.5627e-10
1.21777e-10
8.30273e-10
1.29551e-10
7.97277e-10
1.38184e-10
7.58837e-10
1.47989e-10
7.1594e-10
1.59168e-10
6.69236e-10
1.71851e-10
6.19175e-10
1.86109e-10
5.66088e-10
2.01972e-10
5.10238e-10
2.19463e-10
4.51849e-10
2.38598e-10
3.91091e-10
2.59394e-10
3.2808e-10
2.81873e-10
2.62874e-10
3.06087e-10
1.95457e-10
3.32145e-10
1.25703e-10
3.60221e-10
5.33358e-11
3.90312e-10
-2.18881e-11
4.22148e-10
-9.91119e-11
4.55775e-10
-1.77796e-10
4.91102e-10
-2.57783e-10
5.27956e-10
-3.38473e-10
5.66083e-10
-4.18621e-10
6.05101e-10
-4.96327e-10
6.44414e-10
-5.69102e-10
6.83129e-10
-6.34002e-10
7.2001e-10
-6.87895e-10
7.53501e-10
-7.27862e-10
7.8182e-10
-7.51675e-10
8.03085e-10
-7.58234e-10
8.15493e-10
-7.47836e-10
8.17484e-10
-7.22217e-10
8.07878e-10
-6.84373e-10
-6.38193e-10
7.85956e-10
1.51818e-11
2.3072e-10
4.0674e-11
5.15946e-10
6.7298e-11
6.87523e-10
9.14886e-11
7.86236e-10
1.12371e-10
8.37624e-10
1.30284e-10
8.57808e-10
1.46019e-10
8.57037e-10
1.60445e-10
8.41844e-10
1.7433e-10
8.16389e-10
1.88283e-10
7.83324e-10
2.02763e-10
7.44357e-10
2.18097e-10
7.00606e-10
2.34509e-10
6.52824e-10
2.52144e-10
6.0154e-10
2.71089e-10
5.47143e-10
2.91392e-10
4.89936e-10
3.13082e-10
4.30159e-10
3.36184e-10
3.67988e-10
3.60723e-10
3.03541e-10
3.86732e-10
2.36865e-10
4.14273e-10
1.67917e-10
4.43472e-10
9.65035e-11
4.74586e-10
2.22224e-11
5.07447e-10
-5.47494e-11
5.41815e-10
-1.3348e-10
5.77797e-10
-2.13778e-10
6.15372e-10
-2.95358e-10
6.544e-10
-3.77501e-10
6.94626e-10
-4.58846e-10
7.3562e-10
-5.37322e-10
7.76688e-10
-6.1017e-10
8.16782e-10
-6.74096e-10
8.54475e-10
-7.25588e-10
8.87998e-10
-7.61385e-10
9.15357e-10
-7.79035e-10
9.34507e-10
-7.77384e-10
9.43543e-10
-7.56871e-10
9.40885e-10
-7.19559e-10
9.25414e-10
-6.68901e-10
-6.09308e-10
8.96529e-10
1.61027e-11
2.14617e-10
4.47022e-11
4.87347e-10
7.61498e-11
6.56076e-10
1.06279e-10
7.56107e-10
1.33697e-10
8.10205e-10
1.58358e-10
8.33147e-10
1.80795e-10
8.346e-10
2.0172e-10
8.20919e-10
2.21822e-10
7.96287e-10
2.41684e-10
7.63462e-10
2.61761e-10
7.2428e-10
2.82391e-10
6.79976e-10
3.03812e-10
6.31403e-10
3.26185e-10
5.79167e-10
3.4961e-10
5.23718e-10
3.74148e-10
4.65397e-10
3.99842e-10
4.04465e-10
4.26722e-10
3.41108e-10
4.54822e-10
2.75441e-10
4.84194e-10
2.07493e-10
5.14932e-10
1.37178e-10
5.47198e-10
6.42378e-11
5.81194e-10
-1.17736e-11
6.16636e-10
-9.0191e-11
6.53489e-10
-1.70334e-10
6.91855e-10
-2.52143e-10
7.31766e-10
-3.35269e-10
7.73124e-10
-4.18858e-10
8.15672e-10
-5.01394e-10
8.58922e-10
-5.80572e-10
9.02055e-10
-6.53303e-10
9.4384e-10
-7.15881e-10
9.82615e-10
-7.64363e-10
1.01636e-09
-7.95125e-10
1.04283e-09
-8.05505e-10
1.05979e-09
-7.94352e-10
1.06526e-09
-7.62341e-10
1.05767e-09
-7.11963e-10
1.036e-09
-6.47231e-10
-5.73152e-10
9.99841e-10
1.6656e-11
1.97961e-10
4.76361e-11
4.56367e-10
8.30753e-11
6.20637e-10
1.18338e-10
7.20844e-10
1.51575e-10
7.76968e-10
1.82373e-10
8.02349e-10
2.11003e-10
8.0597e-10
2.38006e-10
7.93917e-10
2.63971e-10
7.70321e-10
2.89435e-10
7.37999e-10
3.14836e-10
6.9888e-10
3.40511e-10
6.54301e-10
3.66707e-10
6.05206e-10
3.93595e-10
5.5228e-10
4.21286e-10
4.96027e-10
4.49854e-10
4.3683e-10
4.79348e-10
3.7497e-10
5.09811e-10
3.10645e-10
5.41289e-10
2.43963e-10
5.73858e-10
1.74924e-10
6.07666e-10
1.0337e-10
6.42995e-10
2.89088e-11
6.79733e-10
-4.85115e-11
7.176e-10
-1.28058e-10
7.56834e-10
-2.09568e-10
7.97584e-10
-2.92893e-10
8.39909e-10
-3.77594e-10
8.83739e-10
-4.62689e-10
9.28806e-10
-5.46461e-10
9.74544e-10
-6.26311e-10
1.01999e-09
-6.98745e-10
1.06368e-09
-7.59576e-10
1.10369e-09
-8.04373e-10
1.13769e-09
-8.29127e-10
1.16318e-09
-8.30989e-10
1.17772e-09
-8.0889e-10
1.17923e-09
-7.63854e-10
1.1662e-09
-6.98936e-10
1.1378e-09
-6.18829e-10
-5.29235e-10
1.09388e-09
1.688e-11
1.81081e-10
4.95449e-11
4.23702e-10
8.81433e-11
5.82038e-10
1.27707e-10
6.81281e-10
1.65998e-10
7.38677e-10
2.02265e-10
7.66081e-10
2.36521e-10
7.71714e-10
2.69125e-10
7.61313e-10
3.00553e-10
7.38893e-10
3.31276e-10
7.07276e-10
3.617e-10
6.68455e-10
3.92152e-10
6.23849e-10
4.22876e-10
5.74482e-10
4.54049e-10
5.21108e-10
4.85789e-10
4.64287e-10
5.18177e-10
4.04441e-10
5.51273e-10
3.41875e-10
5.85127e-10
2.76791e-10
6.19806e-10
2.09284e-10
6.55418e-10
1.39312e-10
6.92151e-10
6.66371e-11
7.30285e-10
-9.2257e-12
7.69534e-10
-8.77603e-11
8.09875e-10
-1.68399e-10
8.51531e-10
-2.51224e-10
8.94718e-10
-3.3608e-10
9.39551e-10
-4.22426e-10
9.85984e-10
-5.09123e-10
1.03373e-09
-5.94203e-10
1.08212e-09
-6.74702e-10
1.13001e-09
-7.46641e-10
1.17571e-09
-8.0527e-10
1.21694e-09
-8.45609e-10
1.25106e-09
-8.6324e-10
1.27524e-09
-8.55168e-10
1.28685e-09
-8.20502e-10
1.28375e-09
-7.60757e-10
1.26453e-09
-6.79715e-10
1.2286e-09
-5.82899e-10
-4.76806e-10
1.17617e-09
1.68146e-11
1.64267e-10
5.05091e-11
3.90007e-10
9.14475e-11
5.411e-10
1.34463e-10
6.38265e-10
1.77007e-10
6.96133e-10
2.18026e-10
7.25062e-10
2.57285e-10
7.32456e-10
2.9496e-10
7.23638e-10
3.31401e-10
7.02452e-10
3.66999e-10
6.71678e-10
4.02117e-10
6.33338e-10
4.37055e-10
5.88911e-10
4.72049e-10
5.39488e-10
5.0727e-10
4.85886e-10
5.4284e-10
4.28717e-10
5.78844e-10
3.68437e-10
6.15349e-10
3.05371e-10
6.52419e-10
2.39721e-10
6.9015e-10
1.71553e-10
7.28708e-10
1.00754e-10
7.68421e-10
2.69249e-11
8.09203e-10
-5.00079e-11
8.50784e-10
-1.29342e-10
8.93474e-10
-2.11089e-10
9.37536e-10
-2.95286e-10
9.83205e-10
-3.81749e-10
1.03062e-09
-4.69845e-10
1.07975e-09
-5.58252e-10
1.13026e-09
-6.44705e-10
1.18135e-09
-7.258e-10
1.2317e-09
-7.96987e-10
1.2793e-09
-8.52865e-10
1.32152e-09
-8.87838e-10
1.35535e-09
-8.97062e-10
1.37762e-09
-8.7744e-10
1.3855e-09
-8.28381e-10
1.37681e-09
-7.52069e-10
1.35029e-09
-6.53199e-10
1.30569e-09
-5.38293e-10
-4.14749e-10
1.24363e-09
1.65e-11
1.47767e-10
5.06173e-11
3.5589e-10
9.31018e-11
4.98615e-10
1.38718e-10
5.92649e-10
1.84686e-10
6.50165e-10
2.29696e-10
6.80052e-10
2.73284e-10
6.88868e-10
3.15446e-10
6.81475e-10
3.56402e-10
6.61496e-10
3.96453e-10
6.31628e-10
4.35901e-10
5.9389e-10
4.75012e-10
5.49799e-10
5.14002e-10
5.00498e-10
5.53031e-10
4.46858e-10
5.92215e-10
3.89533e-10
6.3164e-10
3.29011e-10
6.71381e-10
2.6563e-10
7.11522e-10
1.99579e-10
7.52201e-10
1.30875e-10
7.93647e-10
5.93081e-11
8.3612e-10
-1.55484e-11
8.79325e-10
-9.32133e-11
9.23339e-10
-1.73356e-10
9.68452e-10
-2.56201e-10
1.01498e-09
-3.41814e-10
1.06319e-09
-4.29962e-10
1.11325e-09
-5.19901e-10
1.16509e-09
-6.10097e-10
1.21832e-09
-6.97933e-10
1.27202e-09
-7.79496e-10
1.3246e-09
-8.49572e-10
1.37375e-09
-9.02016e-10
1.41646e-09
-9.30545e-10
1.44926e-09
-9.29868e-10
1.46867e-09
-8.96849e-10
1.47163e-09
-8.31342e-10
1.45597e-09
-7.36403e-10
1.42063e-09
-6.17862e-10
1.36576e-09
-4.83417e-10
-3.41452e-10
1.29246e-09
1.59751e-11
1.31792e-10
4.99623e-11
3.21903e-10
9.32345e-11
4.55343e-10
1.40607e-10
5.45276e-10
1.89155e-10
6.01618e-10
2.3736e-10
6.31847e-10
2.84559e-10
6.41669e-10
3.30578e-10
6.35456e-10
3.75505e-10
6.16569e-10
4.19542e-10
5.8759e-10
4.62925e-10
5.50506e-10
5.05876e-10
5.06848e-10
5.48577e-10
4.57798e-10
5.91171e-10
4.04264e-10
6.33764e-10
3.46939e-10
6.76443e-10
2.86333e-10
7.1929e-10
2.22783e-10
7.62417e-10
1.56453e-10
8.06011e-10
8.72806e-11
8.50446e-10
1.48731e-11
8.95578e-10
-6.06809e-11
9.41205e-10
-1.38839e-10
9.87654e-10
-2.19806e-10
1.03525e-09
-3.03794e-10
1.0843e-09
-3.90868e-10
1.13509e-09
-4.80749e-10
1.18775e-09
-5.72565e-10
1.2422e-09
-6.64541e-10
1.29793e-09
-7.53665e-10
1.35387e-09
-8.35441e-10
1.40821e-09
-9.03903e-10
1.45825e-09
-9.52062e-10
1.50057e-09
-9.72865e-10
1.53126e-09
-9.60553e-10
1.54643e-09
-9.12026e-10
1.54284e-09
-8.27749e-10
1.51833e-09
-7.11891e-10
1.47213e-09
-5.71662e-10
1.40481e-09
-4.16103e-10
-2.54607e-10
1.31797e-09
1.52767e-11
1.16515e-10
4.86372e-11
2.88542e-10
9.19827e-11
4.11998e-10
1.40288e-10
4.9697e-10
1.90565e-10
5.51341e-10
2.41147e-10
5.81266e-10
2.91202e-10
5.91613e-10
3.40406e-10
5.86253e-10
3.88716e-10
5.68258e-10
4.3624e-10
5.40067e-10
4.83137e-10
5.03609e-10
5.29575e-10
4.6041e-10
5.757e-10
4.11672e-10
6.2163e-10
3.58333e-10
6.6746e-10
3.01109e-10
7.13275e-10
2.40517e-10
7.59179e-10
1.7688e-10
8.05332e-10
1.103e-10
8.52028e-10
4.05842e-11
8.99394e-10
-3.2493e-11
9.47101e-10
-1.08387e-10
9.95338e-10
-1.87077e-10
1.0444e-09
-2.68864e-10
1.09459e-09
-3.53988e-10
1.14622e-09
-4.42501e-10
1.19954e-09
-5.34063e-10
1.25464e-09
-6.27663e-10
1.31136e-09
-7.21263e-10
1.36911e-09
-8.11414e-10
1.42664e-09
-8.92976e-10
1.48188e-09
-9.59139e-10
1.53177e-09
-1.00196e-09
1.57243e-09
-1.01352e-09
1.59946e-09
-9.87575e-10
1.60855e-09
-9.21122e-10
1.59625e-09
-8.15443e-10
1.56044e-09
-6.76086e-10
1.50068e-09
-5.11901e-10
1.41796e-09
-3.3338e-10
-1.50733e-10
1.31408e-09
1.44374e-11
1.02078e-10
4.67312e-11
2.56248e-10
8.94851e-11
3.69244e-10
1.37929e-10
4.48527e-10
1.89092e-10
5.00178e-10
2.4122e-10
5.29138e-10
2.93353e-10
5.39479e-10
3.45037e-10
5.34569e-10
3.96116e-10
5.17179e-10
4.466e-10
4.89583e-10
4.96574e-10
4.53635e-10
5.46149e-10
4.10835e-10
5.9543e-10
3.62392e-10
6.44507e-10
3.09256e-10
6.93464e-10
2.52153e-10
7.42391e-10
1.9159e-10
7.91424e-10
1.27847e-10
8.40782e-10
6.09411e-11
8.90787e-10
-9.42006e-12
9.41119e-10
-8.28258e-11
9.91707e-10
-1.58975e-10
1.0428e-09
-2.38173e-10
1.09467e-09
-3.2073e-10
1.14757e-09
-4.06889e-10
1.20175e-09
-4.96681e-10
1.25739e-09
-5.89701e-10
1.31452e-09
-6.84793e-10
1.3729e-09
-7.79645e-10
1.43183e-09
-8.70347e-10
1.48991e-09
-9.51057e-10
1.5448e-09
-1.01403e-09
1.59308e-09
-1.05024e-09
1.63036e-09
-1.0508e-09
1.65169e-09
-1.00891e-09
1.65232e-09
-9.21753e-10
1.62852e-09
-7.91645e-10
1.57824e-09
-6.25805e-10
1.50131e-09
-4.34969e-10
1.39896e-09
-2.31026e-10
-2.38645e-11
1.27209e-09
1.34851e-11
8.85925e-11
4.43253e-11
2.25408e-10
8.58757e-11
3.27694e-10
1.33701e-10
4.00702e-10
1.84928e-10
4.48951e-10
2.37775e-10
4.76291e-10
2.912e-10
4.86054e-10
3.44649e-10
4.8112e-10
3.97869e-10
4.63959e-10
4.50785e-10
4.36668e-10
5.03412e-10
4.01008e-10
5.55804e-10
3.58443e-10
6.08026e-10
3.10169e-10
6.60146e-10
2.57136e-10
7.12242e-10
2.00057e-10
7.64425e-10
1.39407e-10
8.16885e-10
7.53874e-11
8.69967e-10
7.8588e-12
9.23446e-10
-6.28995e-11
9.77008e-10
-1.36388e-10
1.03084e-09
-2.12804e-10
1.08509e-09
-2.9243e-10
1.13995e-09
-3.75584e-10
1.19556e-09
-4.62504e-10
1.25208e-09
-5.532e-10
1.30959e-09
-6.47208e-10
1.36803e-09