/*--------------------------------*- C++ -*----------------------------------*\
  =========                 |
  \\      /  F ield         | OpenFOAM: The Open Source CFD Toolbox
   \\    /   O peration     | Website:  https://openfoam.org
    \\  /    A nd           | Version:  6
     \\/     M anipulation  |
\*---------------------------------------------------------------------------*/
FoamFile
{
    version     2.0;
    format      ascii;
    class       volScalarField;
    location    "10";
    object      chargeDensity;
}
// * * * * * * * * * * * * * * * * * * * * * * * * * * * * * * * * * * * * * //

dimensions      [0 -3 1 0 0 1 0];

internalField   nonuniform List<scalar> 
8800
(
0.000910811
0.000914892
0.00091673
0.000917799
0.000918498
0.000919143
0.000919822
0.000920558
0.000921355
0.000922207
0.000923107
0.000924048
0.000925021
0.000926019
0.000927034
0.000928061
0.000929094
0.000930128
0.00093116
0.000932185
0.000933201
0.000934204
0.000935194
0.000936166
0.000937119
0.000938048
0.000938949
0.000939819
0.000940653
0.000941448
0.000942202
0.000942916
0.000943569
0.000944184
0.000944776
0.000945348
0.000945897
0.000946423
0.000946924
0.000947395
0.000798104
0.000801436
0.000803529
0.000804779
0.000805638
0.000806377
0.000807117
0.000807899
0.000808735
0.000809624
0.00081056
0.000811534
0.000812538
0.000813563
0.000814602
0.000815648
0.000816694
0.000817735
0.000818767
0.000819785
0.000820787
0.000821768
0.000822728
0.000823664
0.000824572
0.00082545
0.000826294
0.000827101
0.000827865
0.000828582
0.000829239
0.000829783
0.000830247
0.000830684
0.000831097
0.00083149
0.000831863
0.000832219
0.000832555
0.00083287
0.000693491
0.000698174
0.000700516
0.000701845
0.000702728
0.000703486
0.000704242
0.00070504
0.00070589
0.000706791
0.000707735
0.000708713
0.000709715
0.000710733
0.000711757
0.000712778
0.000713789
0.000714784
0.000715756
0.000716703
0.00071762
0.000718504
0.000719353
0.000720166
0.00072094
0.000721675
0.000722365
0.000723007
0.000723593
0.000724099
0.000724448
0.000724652
0.000724842
0.000725002
0.000725141
0.000725267
0.000725382
0.000725491
0.000725593
0.000725687
0.00059823
0.000605004
0.000607942
0.000609366
0.000610232
0.000610956
0.000611683
0.000612456
0.000613283
0.000614158
0.000615072
0.000616013
0.00061697
0.000617931
0.000618885
0.000619822
0.000620733
0.000621611
0.00062245
0.000623244
0.000623991
0.000624687
0.000625333
0.000625927
0.00062647
0.000626959
0.000627391
0.000627756
0.000628029
0.000628146
0.000627974
0.000627841
0.00062768
0.000627497
0.000627304
0.00062711
0.000626922
0.000626744
0.000626575
0.000626418
0.000512841
0.000521856
0.000525567
0.000527185
0.000528058
0.000528737
0.000529406
0.000530119
0.000530883
0.000531691
0.000532529
0.000533383
0.00053424
0.000535086
0.000535908
0.000536693
0.000537433
0.00053812
0.000538745
0.000539306
0.0005398
0.000540224
0.00054058
0.000540869
0.000541091
0.000541245
0.000541322
0.000541295
0.0005411
0.000540571
0.000540057
0.000539534
0.000538994
0.000538447
0.000537908
0.000537387
0.000536892
0.000536427
0.000535993
0.00053559
0.000437095
0.000448414
0.000452978
0.000454849
0.000455755
0.000456386
0.000456979
0.000457602
0.000458267
0.000458964
0.00045968
0.000460398
0.0004611
0.000461773
0.000462401
0.000462972
0.000463476
0.000463903
0.00046425
0.00046451
0.000464684
0.000464772
0.000464775
0.000464696
0.000464536
0.00046429
0.000463938
0.000463428
0.000462638
0.000461632
0.000460732
0.000459831
0.00045893
0.000458044
0.000457188
0.000456373
0.000455607
0.000454894
0.000454233
0.000453624
0.000370482
0.000384064
0.000389497
0.000391649
0.000392604
0.000393186
0.000393687
0.000394196
0.00039473
0.000395281
0.000395834
0.000396371
0.000396873
0.000397324
0.00039771
0.000398018
0.000398237
0.00039836
0.000398382
0.000398301
0.000398118
0.000397834
0.000397453
0.000396977
0.000396407
0.000395731
0.000394915
0.000393881
0.000392476
0.000391184
0.000389941
0.000388714
0.000387511
0.000386346
0.000385237
0.000384193
0.000383221
0.000382325
0.000381504
0.000380753
0.000312331
0.000327993
0.000334268
0.000336711
0.000337722
0.000338256
0.000338656
0.000339033
0.000339414
0.000339792
0.000340152
0.000340476
0.000340747
0.000340946
0.00034106
0.000341076
0.000340986
0.000340784
0.000340467
0.000340033
0.000339486
0.00033883
0.000338068
0.000337202
0.00033623
0.000335133
0.000333859
0.000332298
0.000330559
0.000329
0.000327492
0.000326019
0.000324596
0.000323238
0.000321958
0.000320768
0.000319673
0.000318676
0.000317772
0.000316956
0.000261871
0.000279313
0.000286364
0.000289095
0.000290169
0.000290656
0.000290952
0.000291189
0.000291404
0.000291594
0.000291747
0.000291844
0.000291868
0.000291803
0.000291637
0.000291358
0.00029096
0.000290439
0.000289793
0.000289024
0.000288137
0.000287137
0.000286028
0.000284811
0.000283479
0.000282006
0.000280329
0.00027832
0.000276464
0.000274721
0.00027304
0.000271418
0.000269869
0.000268409
0.000267049
0.000265801
0.000264668
0.000263652
0.000262745
0.000261941
0.000218289
0.000237135
0.000244868
0.000247876
0.000249019
0.000249466
0.00024966
0.000249758
0.000249805
0.000249806
0.000249749
0.000249619
0.000249401
0.00024908
0.000248645
0.000248088
0.000247404
0.000246592
0.000245652
0.000244589
0.000243409
0.000242118
0.00024072
0.000239215
0.000237592
0.000235824
0.000233856
0.000231632
0.000229692
0.000227858
0.000226101
0.000224425
0.000222845
0.000221372
0.000220016
0.000218789
0.000217694
0.000216731
0.00021589
0.000215162
0.000180786
0.000200618
0.000208921
0.000212189
0.000213408
0.000213825
0.000213927
0.000213893
0.000213782
0.000213602
0.000213347
0.000213005
0.000212563
0.000212008
0.000211333
0.000210531
0.0002096
0.000208541
0.000207358
0.000206057
0.000204646
0.000203131
0.000201517
0.000199803
0.000197972
0.000195987
0.000193745
0.000191594
0.000189651
0.000187818
0.000186077
0.000184433
0.000182902
0.000181493
0.00018021
0.000179068
0.000178068
0.00017721
0.000176485
0.00017588
0.000148607
0.000169002
0.000177751
0.000181256
0.000182557
0.000182958
0.000182983
0.000182834
0.00018258
0.000182239
0.000181808
0.000181278
0.000180641
0.000179886
0.000179009
0.000178005
0.000176877
0.000175626
0.000174259
0.000172785
0.000171212
0.000169547
0.000167797
0.000165956
0.000164008
0.000161917
0.000159601
0.000157555
0.000155688
0.000153936
0.000152287
0.000150749
0.000149331
0.000148042
0.000146882
0.000145865
0.000144994
0.000144273
0.000143689
0.000143233
0.000121063
0.00014161
0.000150676
0.000154393
0.000155784
0.000156185
0.000156152
0.000155908
0.000155534
0.000155056
0.000154477
0.000153792
0.000152995
0.00015208
0.000151045
0.00014989
0.000148617
0.000147233
0.000145744
0.000144162
0.000142496
0.000140756
0.000138946
0.000137062
0.000135084
0.000132985
0.000130743
0.000128843
0.000127117
0.000125513
0.000124018
0.000122637
0.000121378
0.000120245
0.000119233
0.00011836
0.000117629
0.000117048
0.000116609
0.000116304
9.75349e-05
0.00011786
0.00012711
0.000131008
0.000132494
0.000132914
0.000132846
0.00013253
0.000132062
0.000131476
0.00013078
0.000129974
0.000129057
0.000128025
0.000126879
0.000125621
0.000124258
0.000122796
0.000121246
0.000119618
0.000117925
0.000116175
0.000114376
0.000112522
0.000110586
0.00010848
0.0001065
0.000104792
0.00010326
0.000101851
0.000100553
9.93656e-05
9.82885e-05
9.7324e-05
9.64654e-05
9.57315e-05
9.51307e-05
9.46661e-05
9.43517e-05
9.41829e-05
7.7477e-05
9.72456e-05
0.000106552
0.000110596
0.000112182
0.000112639
0.000112557
0.000112196
0.000111661
0.000110997
0.000110217
0.000109327
0.000108327
0.000107219
0.000106007
0.000104694
0.00010329
0.000101803
0.000100244
9.86268e-05
9.69626e-05
9.5262e-05
9.35323e-05
9.17721e-05
8.99469e-05
8.79622e-05
8.62443e-05
8.47651e-05
8.34606e-05
8.22793e-05
8.12031e-05
8.02247e-05
7.93314e-05
7.85111e-05
7.77964e-05
7.71859e-05
7.66908e-05
7.6318e-05
7.60954e-05
7.60271e-05
6.04208e-05
7.93353e-05
8.85721e-05
9.27295e-05
9.44152e-05
9.49253e-05
9.48535e-05
9.44718e-05
9.38987e-05
9.31854e-05
9.23536e-05
9.14126e-05
9.03673e-05
8.92227e-05
8.79841e-05
8.66592e-05
8.52575e-05
8.379e-05
8.22693e-05
8.07086e-05
7.91205e-05
7.7516e-05
7.59031e-05
7.42861e-05
7.26241e-05
7.08513e-05
6.93965e-05
6.81675e-05
6.70904e-05
6.61401e-05
6.52965e-05
6.45322e-05
6.38222e-05
6.31466e-05
6.25484e-05
6.20237e-05
6.15902e-05
6.12674e-05
6.10885e-05
6.10695e-05
4.59264e-05
6.37876e-05
7.28189e-05
7.70393e-05
7.88276e-05
7.94058e-05
7.93646e-05
7.8987e-05
7.84015e-05
7.76678e-05
7.68136e-05
7.58533e-05
7.47954e-05
7.3648e-05
7.2419e-05
7.11179e-05
6.9756e-05
6.83455e-05
6.69e-05
6.54331e-05
6.39579e-05
6.24859e-05
6.1025e-05
5.95584e-05
5.80137e-05
5.65781e-05
5.53963e-05
5.44281e-05
5.35988e-05
5.28909e-05
5.22778e-05
5.1718e-05
5.11778e-05
5.06338e-05
5.01106e-05
4.96189e-05
4.9187e-05
4.88495e-05
4.86503e-05
4.86192e-05
3.36197e-05
5.02781e-05
5.90017e-05
6.3234e-05
6.51089e-05
6.57644e-05
6.57751e-05
6.54253e-05
6.48525e-05
6.41239e-05
6.32737e-05
6.23206e-05
6.12781e-05
6.01551e-05
5.89632e-05
5.77134e-05
5.6418e-05
5.50907e-05
5.37454e-05
5.23964e-05
5.10569e-05
4.97383e-05
4.84476e-05
4.71644e-05
4.58294e-05
4.46966e-05
4.37885e-05
4.30822e-05
4.25155e-05
4.20547e-05
4.16606e-05
4.12838e-05
4.08808e-05
4.04229e-05
3.99223e-05
3.94011e-05
3.89011e-05
3.84755e-05
3.81833e-05
3.80712e-05
2.31778e-05
3.85348e-05
4.68638e-05
5.1059e-05
5.3003e-05
5.37387e-05
5.3814e-05
5.35104e-05
5.29709e-05
5.22694e-05
5.14457e-05
5.05229e-05
4.95181e-05
4.84428e-05
4.73104e-05
4.61336e-05
4.49259e-05
4.37014e-05
4.24748e-05
4.12602e-05
4.00713e-05
3.89193e-05
3.78116e-05
3.67207e-05
3.56629e-05
3.48192e-05
3.41831e-05
3.37352e-05
3.3421e-05
3.31927e-05
3.29964e-05
3.27712e-05
3.24626e-05
3.20353e-05
3.14942e-05
3.08712e-05
3.02247e-05
2.96291e-05
2.91639e-05
2.88951e-05
1.43218e-05
2.83245e-05
3.61892e-05
4.03004e-05
4.22924e-05
4.31055e-05
4.32532e-05
4.30095e-05
4.25199e-05
4.18634e-05
4.10845e-05
4.02106e-05
3.92616e-05
3.82519e-05
3.71964e-05
3.61091e-05
3.50046e-05
3.38974e-05
3.28024e-05
3.17342e-05
3.07059e-05
2.97291e-05
2.88118e-05
2.78975e-05
2.71556e-05
2.65944e-05
2.62232e-05
2.60244e-05
2.59464e-05
2.59284e-05
2.59003e-05
2.57862e-05
2.55189e-05
2.50563e-05
2.43997e-05
2.35917e-05
2.27101e-05
2.18542e-05
2.11278e-05
2.06193e-05
6.81195e-06
1.94467e-05
2.67939e-05
3.07779e-05
3.2794e-05
3.36771e-05
3.39003e-05
3.37257e-05
3.32985e-05
3.27008e-05
3.19813e-05
3.11707e-05
3.02914e-05
2.93606e-05
2.83945e-05
2.74082e-05
2.64169e-05
2.54358e-05
2.44797e-05
2.35631e-05
2.26992e-05
2.18991e-05
2.11714e-05
2.04922e-05
2.00181e-05
1.97229e-05
1.96046e-05
1.96411e-05
1.97783e-05
1.99422e-05
2.00446e-05
1.99917e-05
1.97018e-05
1.91254e-05
1.82645e-05
1.71747e-05
1.59569e-05
1.4739e-05
1.36534e-05
1.28136e-05
4.42147e-07
1.17279e-05
1.85203e-05
2.23381e-05
2.43533e-05
2.52952e-05
2.55926e-05
2.5492e-05
2.51357e-05
2.4607e-05
2.39574e-05
2.32206e-05
2.24212e-05
2.15784e-05
2.07096e-05
1.98309e-05
1.89581e-05
1.81065e-05
1.72911e-05
1.65262e-05
1.58246e-05
1.51972e-05
1.46221e-05
1.42184e-05
1.39977e-05
1.39512e-05
1.407e-05
1.43243e-05
1.46521e-05
1.49642e-05
1.51515e-05
1.50995e-05
1.47099e-05
1.39264e-05
1.27549e-05
1.12688e-05
9.59692e-06
7.90037e-06
6.34401e-06
5.06938e-06
-4.9639e-06
5.01753e-06
1.12325e-05
1.48508e-05
1.68397e-05
1.78262e-05
1.81926e-05
1.81671e-05
1.78861e-05
1.74328e-05
1.68601e-05
1.62039e-05
1.54905e-05
1.47409e-05
1.39734e-05
1.32049e-05
1.24515e-05
1.17287e-05
1.10512e-05
1.04333e-05
9.88737e-06
9.42459e-06
9.04548e-06
8.87386e-06
8.88443e-06
9.06698e-06
9.40418e-06
9.85538e-06
1.03457e-05
1.07666e-05
1.09848e-05
1.08612e-05
1.02791e-05
9.17585e-06
7.56603e-06
5.5464e-06
3.28029e-06
9.67584e-07
-1.19006e-06
-3.02051e-06
-9.55663e-06
-8.15017e-07
4.81323e-06
8.20442e-06
1.01423e-05
1.11569e-05
1.15839e-05
1.16308e-05
1.14259e-05
1.10507e-05
1.05584e-05
9.98617e-06
9.36158e-06
8.70682e-06
8.04102e-06
7.38159e-06
6.74482e-06
6.14616e-06
5.60025e-06
5.12092e-06
4.72021e-06
4.39215e-06
4.23907e-06
4.27959e-06
4.50135e-06
4.8927e-06
5.42763e-06
6.05203e-06
6.67301e-06
7.15749e-06
7.34266e-06
7.06036e-06
6.17334e-06
4.61376e-06
2.41007e-06
-3.09663e-07
-3.3396e-06
-6.4343e-06
-9.35059e-06
-1.18829e-05
-1.34639e-05
-5.88332e-06
-8.39278e-07
2.30307e-06
4.16661e-06
5.19187e-06
5.66829e-06
5.7814e-06
5.65015e-06
5.3523e-06
4.94052e-06
4.45229e-06
3.91602e-06
3.3546e-06
2.78769e-06
2.23299e-06
1.70687e-06
1.22461e-06
8.00574e-07
4.48418e-07
1.80296e-07
1.43914e-08
5.69309e-08
2.88306e-07
7.01248e-07
1.28106e-06
1.99194e-06
2.76342e-06
3.47909e-06
3.97469e-06
4.05103e-06
3.50521e-06
2.17651e-06
-6.26598e-09
-2.9942e-06
-6.61835e-06
-1.06204e-05
-1.47014e-05
-1.85713e-05
-2.19876e-05
-1.6794e-05
-1.02861e-05
-5.81368e-06
-2.93575e-06
-1.16767e-06
-1.50038e-07
3.62515e-07
5.3299e-07
4.69525e-07
2.45136e-07
-8.92385e-08
-4.96452e-07
-9.47946e-07
-1.42052e-06
-1.89428e-06
-2.35145e-06
-2.77571e-06
-3.15206e-06
-3.46654e-06
-3.70547e-06
-3.86739e-06
-3.84321e-06
-3.62684e-06
-3.22361e-06
-2.63818e-06
-1.88949e-06
-1.02474e-06
-1.34425e-07
6.35408e-07
1.08116e-06
9.58522e-07
2.24755e-08
-1.91469e-06
-4.92524e-06
-8.93173e-06
-1.37127e-05
-1.89458e-05
-2.42689e-05
-2.93395e-05
-3.38734e-05
-1.96382e-05
-1.41091e-05
-1.01873e-05
-7.58356e-06
-5.92949e-06
-4.93765e-06
-4.40383e-06
-4.18735e-06
-4.19169e-06
-4.34956e-06
-4.61263e-06
-4.94484e-06
-5.31799e-06
-5.70902e-06
-6.0981e-06
-6.46755e-06
-6.80126e-06
-7.08455e-06
-7.30406e-06
-7.44456e-06
-7.46665e-06
-7.28498e-06
-6.91561e-06
-6.35814e-06
-5.61727e-06
-4.71789e-06
-3.72111e-06
-2.74194e-06
-1.96352e-06
-1.63864e-06
-2.0677e-06
-3.54721e-06
-6.2964e-06
-1.0386e-05
-1.57003e-05
-2.19517e-05
-2.87403e-05
-3.56307e-05
-4.22213e-05
-4.81788e-05
-2.20732e-05
-1.74268e-05
-1.4028e-05
-1.17026e-05
-1.01782e-05
-9.22975e-06
-8.69056e-06
-8.4415e-06
-8.39796e-06
-8.49908e-06
-8.69987e-06
-8.96594e-06
-9.26999e-06
-9.58948e-06
-9.90491e-06
-1.01989e-05
-1.04556e-05
-1.06606e-05
-1.08018e-05
-1.08607e-05
-1.07216e-05
-1.04009e-05
-9.89496e-06
-9.19822e-06
-8.31661e-06
-7.28278e-06
-6.17504e-06
-5.13861e-06
-4.40266e-06
-4.28133e-06
-5.14468e-06
-7.35258e-06
-1.11618e-05
-1.66387e-05
-2.36181e-05
-3.1731e-05
-4.04852e-05
-4.93608e-05
-5.78909e-05
-6.56791e-05
-2.41628e-05
-2.03038e-05
-1.73953e-05
-1.53474e-05
-1.39653e-05
-1.30769e-05
-1.25489e-05
-1.22823e-05
-1.22045e-05
-1.22613e-05
-1.24116e-05
-1.26232e-05
-1.28701e-05
-1.31307e-05
-1.33859e-05
-1.36189e-05
-1.38139e-05
-1.39568e-05
-1.40339e-05
-1.39599e-05
-1.37e-05
-1.32606e-05
-1.26326e-05
-1.18088e-05
-1.07983e-05
-9.64389e-06
-8.4452e-06
-7.38463e-06
-6.74825e-06
-6.92623e-06
-8.37517e-06
-1.15333e-05
-1.67032e-05
-2.39444e-05
-3.30301e-05
-4.34932e-05
-5.47343e-05
-6.61373e-05
-7.71655e-05
-8.73379e-05
-2.59603e-05
-2.2796e-05
-2.03415e-05
-1.85663e-05
-1.73362e-05
-1.65232e-05
-1.60232e-05
-1.57556e-05
-1.56591e-05
-1.56864e-05
-1.58008e-05
-1.59723e-05
-1.61766e-05
-1.63933e-05
-1.66041e-05
-1.67923e-05
-1.69426e-05
-1.70388e-05
-1.70295e-05
-1.68325e-05
-1.64659e-05
-1.592e-05
-1.51798e-05
-1.42374e-05
-1.31066e-05
-1.1843e-05
-1.05722e-05
-9.52216e-06
-9.04883e-06
-9.63613e-06
-1.18479e-05
-1.62198e-05
-2.31116e-05
-3.25751e-05
-4.43099e-05
-5.77344e-05
-7.21283e-05
-8.67669e-05
-0.000101049
-0.000114618
-2.75094e-05
-2.49519e-05
-2.29132e-05
-2.14021e-05
-2.03311e-05
-1.96078e-05
-1.91527e-05
-1.89017e-05
-1.88039e-05
-1.88191e-05
-1.89144e-05
-1.90627e-05
-1.92415e-05
-1.94315e-05
-1.96153e-05
-1.97765e-05
-1.98994e-05
-1.99477e-05
-1.98122e-05
-1.95194e-05
-1.90606e-05
-1.84171e-05
-1.75707e-05
-1.65145e-05
-1.52687e-05
-1.39046e-05
-1.25796e-05
-1.15765e-05
-1.13361e-05
-1.24573e-05
-1.56361e-05
-2.15302e-05
-3.05723e-05
-4.28094e-05
-5.78575e-05
-7.50069e-05
-9.34078e-05
-0.000112211
-0.000130924
-0.00014771
-2.88461e-05
-2.68134e-05
-2.51517e-05
-2.38938e-05
-2.29867e-05
-2.2366e-05
-2.19729e-05
-2.1757e-05
-2.16772e-05
-2.16995e-05
-2.17951e-05
-2.19394e-05
-2.21114e-05
-2.22937e-05
-2.24691e-05
-2.2621e-05
-2.27141e-05
-2.26452e-05
-2.24259e-05
-2.20541e-05
-2.15109e-05
-2.07734e-05
-1.98226e-05
-1.86538e-05
-1.72953e-05
-1.58376e-05
-1.44753e-05
-1.35572e-05
-1.36257e-05
-1.54186e-05
-1.97946e-05
-2.75639e-05
-3.92556e-05
-5.49207e-05
-7.40875e-05
-9.59122e-05
-0.000119421
-0.000143617
-0.000167679
-0.000188266
-2.99998e-05
-2.84168e-05
-2.70942e-05
-2.60771e-05
-2.5337e-05
-2.48311e-05
-2.45168e-05
-2.43555e-05
-2.43142e-05
-2.43648e-05
-2.44818e-05
-2.46429e-05
-2.48285e-05
-2.50227e-05
-2.52078e-05
-2.53443e-05
-2.53376e-05
-2.51875e-05
-2.48985e-05
-2.44529e-05
-2.38263e-05
-2.29938e-05
-2.19367e-05
-2.06536e-05
-1.91827e-05
-1.76367e-05
-1.62541e-05
-1.54601e-05
-1.59174e-05
-1.85301e-05
-2.43543e-05
-3.43912e-05
-4.92997e-05
-6.91543e-05
-9.34029e-05
-0.000121075
-0.000151119
-0.000182923
-0.00021216
-0.000237738
-3.09944e-05
-2.97936e-05
-2.87741e-05
-2.7985e-05
-2.74142e-05
-2.70346e-05
-2.68162e-05
-2.67296e-05
-2.67485e-05
-2.68499e-05
-2.70109e-05
-2.72105e-05
-2.74295e-05
-2.76545e-05
-2.78367e-05
-2.78845e-05
-2.77993e-05
-2.75881e-05
-2.72342e-05
-2.67134e-05
-2.59996e-05
-2.50675e-05
-2.38996e-05
-2.24989e-05
-2.09149e-05
-1.92858e-05
-1.78996e-05
-1.72693e-05
-1.81965e-05
-2.17805e-05
-2.93145e-05
-4.20375e-05
-6.0784e-05
-8.56895e-05
-0.000116148
-0.000151091
-0.000189615
-0.000229144
-0.000265645
-0.000297748
-3.18493e-05
-3.09714e-05
-3.02223e-05
-2.9649e-05
-2.92494e-05
-2.90075e-05
-2.89022e-05
-2.8911e-05
-2.90125e-05
-2.91877e-05
-2.94154e-05
-2.96746e-05
-2.99448e-05
-3.01757e-05
-3.02711e-05
-3.02484e-05
-3.01113e-05
-2.98427e-05
-2.94198e-05
-2.88174e-05
-2.80093e-05
-2.69709e-05
-2.56867e-05
-2.41649e-05
-2.24678e-05
-2.07612e-05
-1.93882e-05
-1.89596e-05
-2.0434e-05
-2.51344e-05
-3.46332e-05
-5.04612e-05
-7.36906e-05
-0.000104579
-0.000142529
-0.000186432
-0.00023549
-0.000283934
-0.000329544
-0.000370553
-3.25804e-05
-3.19746e-05
-3.14671e-05
-3.10989e-05
-3.08732e-05
-3.07805e-05
-3.08057e-05
-3.09308e-05
-3.11367e-05
-3.14085e-05
-3.17241e-05
-3.20499e-05
-3.23317e-05
-3.24728e-05
-3.25142e-05
-3.24502e-05
-3.22622e-05
-3.19289e-05
-3.14276e-05
-3.0734e-05
-2.9823e-05
-2.86715e-05
-2.72661e-05
-2.56212e-05
-2.38126e-05
-2.20356e-05
-2.06923e-05
-2.04994e-05
-2.25876e-05
-2.85294e-05
-4.02163e-05
-5.95288e-05
-8.78533e-05
-0.00012566
-0.000172473
-0.000227789
-0.000287486
-0.000347863
-0.000406138
-0.000454859
-3.32006e-05
-3.28248e-05
-3.2535e-05
-3.23637e-05
-3.23154e-05
-3.23839e-05
-3.2557e-05
-3.28187e-05
-3.31497e-05
-3.35382e-05
-3.39276e-05
-3.42535e-05
-3.44563e-05
-3.45701e-05
-3.45816e-05
-3.44719e-05
-3.42218e-05
-3.38114e-05
-3.32198e-05
-3.24247e-05
-3.14026e-05
-3.01323e-05
-2.86034e-05
-2.68361e-05
-2.49202e-05
-2.30816e-05
-2.17834e-05
-2.18534e-05
-2.4604e-05
-3.18755e-05
-4.59097e-05
-6.89899e-05
-0.0001029
-0.000148434
-0.00020527
-0.000272899
-0.00034555
-0.000422298
-0.000491022
-0.00055187
-3.37209e-05
-3.35415e-05
-3.34509e-05
-3.34712e-05
-3.36054e-05
-3.38475e-05
-3.41856e-05
-3.46027e-05
-3.50753e-05
-3.55385e-05
-3.59154e-05
-3.61953e-05
-3.63892e-05
-3.64802e-05
-3.6449e-05
-3.62778e-05
-3.59497e-05
-3.54478e-05
-3.4754e-05
-3.38481e-05
-3.2709e-05
-3.13173e-05
-2.96656e-05
-2.77802e-05
-2.57646e-05
-2.38749e-05
-2.26355e-05
-2.29856e-05
-2.64218e-05
-3.50578e-05
-5.14995e-05
-7.84645e-05
-0.000118203
-0.000171996
-0.000240332
-0.000319801
-0.000410005
-0.000499585
-0.000584013
-0.000660523
-3.41504e-05
-3.41427e-05
-3.42384e-05
-3.44485e-05
-3.47718e-05
-3.51999e-05
-3.5718e-05
-3.62851e-05
-3.68383e-05
-3.72849e-05
-3.76589e-05
-3.79447e-05
-3.81216e-05
-3.8171e-05
-3.80767e-05
-3.78247e-05
-3.7402e-05
-3.6795e-05
-3.59886e-05
-3.49656e-05
-3.37066e-05
-3.21947e-05
-3.04252e-05
-2.84299e-05
-2.63255e-05
-2.4397e-05
-2.32272e-05
-2.38626e-05
-2.79769e-05
-3.79463e-05
-5.67272e-05
-8.74596e-05
-0.000132849
-0.000194545
-0.000273059
-0.000364844
-0.000473319
-0.000576884
-0.000680531
-0.000777469
-3.44973e-05
-3.46445e-05
-3.49193e-05
-3.53207e-05
-3.58413e-05
-3.64668e-05
-3.71356e-05
-3.77763e-05
-3.83322e-05
-3.88204e-05
-3.9212e-05
-3.94842e-05
-3.96188e-05
-3.96017e-05
-3.94217e-05
-3.90697e-05
-3.85369e-05
-3.78136e-05
-3.68877e-05
-3.57446e-05
-3.43673e-05
-3.27404e-05
-3.0862e-05
-2.87691e-05
-2.659e-05
-2.46362e-05
-2.35438e-05
-2.44571e-05
-2.921e-05
-4.0413e-05
-6.13274e-05
-9.5455e-05
-0.000145912
-0.000214748
-0.000301275
-0.000405099
-0.000526031
-0.000646076
-0.000770449
-0.000894186
0.000947835
0.000948237
0.0009486
0.000948919
0.000949192
0.000949416
0.000949593
0.000949726
0.000949825
0.000949929
0.000949929
0.000949825
0.000949726
0.000949594
0.000949417
0.000949192
0.000948919
0.0009486
0.000948238
0.000947835
0.000833161
0.000833426
0.000833661
0.000833864
0.000834033
0.000834167
0.000834267
0.000834338
0.000834391
0.000834447
0.000834447
0.000834391
0.000834339
0.000834268
0.000834167
0.000834033
0.000833864
0.000833661
0.000833426
0.000833162
0.000725771
0.000725844
0.000725904
0.000725948
0.000725976
0.000725987
0.000725983
0.00072597
0.000725957
0.000725963
0.000725963
0.000725957
0.00072597
0.000725984
0.000725987
0.000725976
0.000725949
0.000725905
0.000725845
0.000725772
0.000626269
0.000626128
0.000625991
0.000625859
0.000625729
0.000625603
0.000625484
0.000625376
0.000625292
0.000625253
0.000625253
0.000625292
0.000625376
0.000625484
0.000625604
0.00062573
0.000625859
0.000625992
0.000626128
0.00062627
0.000535216
0.000534869
0.000534546
0.000534245
0.000533966
0.000533709
0.000533478
0.000533279
0.000533125
0.000533041
0.000533041
0.000533126
0.000533279
0.000533478
0.000533709
0.000533966
0.000534246
0.000534546
0.00053487
0.000535217
0.000453064
0.000452549
0.000452075
0.000451639
0.000451238
0.000450875
0.000450552
0.000450278
0.000450066
0.000449943
0.000449943
0.000450066
0.000450278
0.000450553
0.000450875
0.000451239
0.000451639
0.000452076
0.00045255
0.000453065
0.000380069
0.000379445
0.000378874
0.000378352
0.000377875
0.000377444
0.000377062
0.000376737
0.000376484
0.000376335
0.000376335
0.000376485
0.000376737
0.000377062
0.000377445
0.000377876
0.000378353
0.000378875
0.000379446
0.00038007
0.000316221
0.000315557
0.000314955
0.000314407
0.000313906
0.000313452
0.000313048
0.000312703
0.000312434
0.000312272
0.000312272
0.000312434
0.000312703
0.000313049
0.000313453
0.000313907
0.000314407
0.000314956
0.000315558
0.000316223
0.000261228
0.000260593
0.000260024
0.000259509
0.000259038
0.000258608
0.000258221
0.000257886
0.000257622
0.000257462
0.000257462
0.000257622
0.000257886
0.000258221
0.000258609
0.000259039
0.000259509
0.000260025
0.000260594
0.000261229
0.000214533
0.000213988
0.000213508
0.000213078
0.000212685
0.00021232
0.000211985
0.000211688
0.000211449
0.000211304
0.000211304
0.000211449
0.000211688
0.000211985
0.000212321
0.000212685
0.000213079
0.000213509
0.000213989
0.000214534
0.000175382
0.000174969
0.000174621
0.000174316
0.000174036
0.000173769
0.000173512
0.000173275
0.000173077
0.000172956
0.000172956
0.000173077
0.000173275
0.000173513
0.000173769
0.000174036
0.000174316
0.000174622
0.00017497
0.000175383
0.000142888
0.000142633
0.000142441
0.000142285
0.000142142
0.000141995
0.000141836
0.000141672
0.000141526
0.000141436
0.000141436
0.000141526
0.000141673
0.000141836
0.000141995
0.000142143
0.000142286
0.000142441
0.000142634
0.00014289
0.000116117
0.000116024
0.000115995
0.000115998
0.000116003
0.000115986
0.000115934
0.000115853
0.000115764
0.000115707
0.000115707
0.000115764
0.000115853
0.000115935
0.000115986
0.000116003
0.000115998
0.000115995
0.000116025
0.000116118
9.41405e-05
9.41992e-05
9.43265e-05
9.4485e-05
9.46373e-05
9.47513e-05
9.48093e-05
9.48114e-05
9.47798e-05
9.4756e-05
9.47561e-05
9.478e-05
9.48118e-05
9.48098e-05
9.47518e-05
9.46379e-05
9.44857e-05
9.43273e-05
9.42001e-05
9.41416e-05
7.60969e-05
7.62807e-05
7.65436e-05
7.68423e-05
7.71309e-05
7.73683e-05
7.75295e-05
7.76099e-05
7.76311e-05
7.76362e-05
7.76363e-05
7.76313e-05
7.76102e-05
7.75299e-05
7.73688e-05
7.71315e-05
7.68429e-05
7.65444e-05
7.62817e-05
7.6098e-05
6.12045e-05
6.1473e-05
6.18383e-05
6.22508e-05
6.26554e-05
6.30003e-05
6.32522e-05
6.34011e-05
6.34678e-05
6.34968e-05
6.34968e-05
6.34679e-05
6.34014e-05
6.32525e-05
6.30008e-05
6.2656e-05
6.22514e-05
6.18391e-05
6.14739e-05
6.12056e-05
4.87632e-05
4.90671e-05
4.94934e-05
4.99859e-05
5.04792e-05
5.09097e-05
5.12348e-05
5.14387e-05
5.15411e-05
5.15879e-05
5.15879e-05
5.15413e-05
5.14389e-05
5.12351e-05
5.09101e-05
5.04797e-05
4.99865e-05
4.94941e-05
4.9068e-05
4.87643e-05
3.81606e-05
3.84437e-05
3.88828e-05
3.9415e-05
3.99638e-05
4.04526e-05
4.08289e-05
4.10708e-05
4.11971e-05
4.12546e-05
4.12547e-05
4.11972e-05
4.1071e-05
4.08292e-05
4.0453e-05
3.99643e-05
3.94156e-05
3.88835e-05
3.84446e-05
3.81618e-05
2.88601e-05
2.90601e-05
2.9458e-05
2.99838e-05
3.05491e-05
3.10634e-05
3.14643e-05
3.17237e-05
3.18598e-05
3.19202e-05
3.19202e-05
3.18599e-05
3.17239e-05
3.14647e-05
3.10637e-05
3.05496e-05
2.99843e-05
2.94587e-05
2.9061e-05
2.88613e-05
2.03839e-05
2.04326e-05
2.07293e-05
2.11961e-05
2.17326e-05
2.22332e-05
2.26269e-05
2.28792e-05
2.30086e-05
2.30628e-05
2.30628e-05
2.30087e-05
2.28794e-05
2.26272e-05
2.22335e-05
2.1733e-05
2.11967e-05
2.07301e-05
2.04337e-05
2.03852e-05
1.22939e-05
1.21159e-05
1.22436e-05
1.2591e-05
1.3045e-05
1.34849e-05
1.38327e-05
1.40481e-05
1.4151e-05
1.41885e-05
1.41885e-05
1.41512e-05
1.40483e-05
1.3833e-05
1.34852e-05
1.30453e-05
1.25915e-05
1.22444e-05
1.2117e-05
1.22953e-05
4.17068e-06
3.67999e-06
3.56068e-06
3.71702e-06
4.02374e-06
4.34479e-06
4.59887e-06
4.73914e-06
4.79006e-06
4.79748e-06
4.79749e-06
4.79018e-06
4.73933e-06
4.59909e-06
4.34504e-06
4.02409e-06
3.71757e-06
3.56152e-06
3.6812e-06
4.17228e-06
-4.40893e-06
-5.3135e-06
-5.77334e-06
-5.89558e-06
-5.81702e-06
-5.69005e-06
-5.59017e-06
-5.6057e-06
-5.68079e-06
-5.74538e-06
-5.74539e-06
-5.68071e-06
-5.60557e-06
-5.58999e-06
-5.68984e-06
-5.81671e-06
-5.89504e-06
-5.77246e-06
-5.3122e-06
-4.40718e-06
-1.38956e-05
-1.5338e-05
-1.62547e-05
-1.67674e-05
-1.7033e-05
-1.72899e-05
-1.75252e-05
-1.771e-05
-1.7858e-05
-1.79619e-05
-1.79619e-05
-1.78579e-05
-1.77098e-05
-1.75251e-05
-1.72898e-05
-1.70327e-05
-1.67669e-05
-1.62538e-05
-1.53367e-05
-1.38937e-05
-2.4794e-05
-2.69321e-05
-2.84563e-05
-2.95753e-05
-3.04006e-05
-3.09048e-05
-3.13208e-05
-3.16795e-05
-3.19572e-05
-3.21309e-05
-3.21309e-05
-3.19571e-05
-3.16793e-05
-3.13206e-05
-3.09046e-05
-3.04003e-05
-2.95748e-05
-2.84554e-05
-2.69306e-05
-2.4792e-05
-3.76938e-05
-4.07357e-05
-4.31657e-05
-4.49092e-05
-4.60971e-05
-4.70091e-05
-4.77747e-05
-4.83981e-05
-4.88464e-05
-4.91076e-05
-4.91076e-05
-4.88463e-05
-4.83979e-05
-4.77745e-05
-4.7009e-05
-4.60968e-05
-4.49087e-05
-4.31648e-05
-4.07342e-05
-3.76917e-05
-5.33079e-05
-5.76304e-05
-6.09126e-05
-6.32549e-05
-6.50571e-05
-6.65303e-05
-6.77542e-05
-6.87151e-05
-6.93784e-05
-6.97475e-05
-6.97474e-05
-6.93783e-05
-6.8715e-05
-6.77541e-05
-6.65302e-05
-6.50569e-05
-6.32544e-05
-6.09117e-05
-5.76289e-05
-5.33057e-05
-7.25837e-05
-7.82387e-05
-8.24025e-05
-8.56265e-05
-8.8254e-05
-9.04455e-05
-9.2241e-05
-9.36159e-05
-9.45415e-05
-9.50408e-05
-9.50408e-05
-9.45415e-05
-9.36158e-05
-9.22409e-05
-9.04453e-05
-8.82537e-05
-8.56261e-05
-8.24017e-05
-7.82373e-05
-7.25816e-05
-9.64351e-05
-0.000103359
-0.000108746
-0.000113137
-0.000116811
-0.000119881
-0.00012236
-0.000124223
-0.000125457
-0.000126108
-0.000126108
-0.000125457
-0.000124223
-0.00012236
-0.000119881
-0.000116811
-0.000113136
-0.000108745
-0.000103358
-9.6433e-05
-0.000125569
-0.00013421
-0.000141198
-0.000147063
-0.000152002
-0.000156096
-0.00015935
-0.000161759
-0.000163336
-0.000164155
-0.000164156
-0.000163336
-0.000161759
-0.00015935
-0.000156096
-0.000152002
-0.000147063
-0.000141197
-0.000134209
-0.000125568
-0.000161294
-0.000172181
-0.000181184
-0.000188822
-0.0001952
-0.000200412
-0.000204488
-0.000207466
-0.000209398
-0.00021039
-0.00021039
-0.000209398
-0.000207466
-0.000204488
-0.000200412
-0.0001952
-0.000188822
-0.000181183
-0.00017218
-0.000161292
-0.000205157
-0.000218836
-0.000230242
-0.000239872
-0.000247759
-0.000254087
-0.000258953
-0.000262466
-0.000264725
-0.000265874
-0.000265874
-0.000264725
-0.000262466
-0.000258953
-0.000254087
-0.000247759
-0.000239871
-0.000230242
-0.000218835
-0.000205156
-0.000258808
-0.000275815
-0.000289906
-0.000301596
-0.00031084
-0.000318112
-0.000323621
-0.000327557
-0.000330079
-0.000331355
-0.000331355
-0.000330079
-0.000327557
-0.000323621
-0.000318112
-0.000310841
-0.000301596
-0.000289905
-0.000275815
-0.000258807
-0.000324107
-0.000344855
-0.000361372
-0.000374673
-0.000385063
-0.000393034
-0.000398958
-0.000403134
-0.000405789
-0.000407124
-0.000407124
-0.000405789
-0.000403134
-0.000398958
-0.000393034
-0.000385063
-0.000374673
-0.000361372
-0.000344855
-0.000324106
-0.000402214
-0.000426348
-0.000445165
-0.00045969
-0.000470692
-0.000478897
-0.000484863
-0.000489003
-0.000491609
-0.000492914
-0.000492914
-0.000491609
-0.000489003
-0.000484864
-0.000478897
-0.000470692
-0.00045969
-0.000445165
-0.000426348
-0.000402213
-0.000493728
-0.000521236
-0.000541538
-0.000556422
-0.000567255
-0.000575076
-0.000580621
-0.0005844
-0.000586753
-0.00058793
-0.00058793
-0.000586753
-0.0005844
-0.000580622
-0.000575076
-0.000567256
-0.000556422
-0.000541538
-0.000521236
-0.000493728
-0.000599554
-0.000629468
-0.000649886
-0.000663919
-0.000673642
-0.000680395
-0.000685044
-0.000688145
-0.000690052
-0.000691012
-0.000691012
-0.000690052
-0.000688145
-0.000685044
-0.000680395
-0.000673642
-0.000663919
-0.000649886
-0.000629468
-0.000599553
-0.000719738
-0.000750258
-0.000768895
-0.000780641
-0.00078829
-0.000793355
-0.000796712
-0.000798887
-0.000800205
-0.00080088
-0.00080088
-0.000800205
-0.000798887
-0.000796712
-0.000793355
-0.00078829
-0.000780641
-0.000768895
-0.000750258
-0.000719738
-0.00085396
-0.000882191
-0.000896628
-0.000904625
-0.000909415
-0.000912377
-0.000914219
-0.00091535
-0.000916021
-0.000916401
-0.000916401
-0.000916021
-0.00091535
-0.000914219
-0.000912377
-0.000909415
-0.000904625
-0.000896628
-0.000882191
-0.00085396
-0.00100205
-0.00102319