/*--------------------------------*- C++ -*----------------------------------*\
  =========                 |
  \\      /  F ield         | OpenFOAM: The Open Source CFD Toolbox
   \\    /   O peration     | Website:  https://openfoam.org
    \\  /    A nd           | Version:  6
     \\/     M anipulation  |
\*---------------------------------------------------------------------------*/
FoamFile
{
    version     2.0;
    format      ascii;
    class       volVectorField;
    location    "10";
    object      elec;
}
// * * * * * * * * * * * * * * * * * * * * * * * * * * * * * * * * * * * * * //

dimensions      [1 1 -3 0 0 -1 0];

internalField   nonuniform List<vector> 
8800
(
(-12.942 -97288.3 -0)
(-32.9335 -97333.9 -0)
(-45.7462 -97409.8 -0)
(-56.8908 -97510 -0)
(-67.6302 -97632.5 -0)
(-78.3143 -97776.6 -0)
(-88.8943 -97942 -0)
(-99.2948 -98128.2 -0)
(-109.451 -98334.9 -0)
(-119.312 -98561.5 -0)
(-128.836 -98807.3 -0)
(-137.988 -99071.7 -0)
(-146.741 -99354 -0)
(-155.068 -99653.3 -0)
(-162.947 -99968.8 -0)
(-170.357 -100300 -0)
(-177.275 -100645 -0)
(-183.682 -101003 -0)
(-189.555 -101374 -0)
(-194.869 -101756 -0)
(-199.598 -102148 -0)
(-203.712 -102549 -0)
(-207.18 -102957 -0)
(-209.969 -103372 -0)
(-212.043 -103792 -0)
(-213.369 -104216 -0)
(-213.917 -104641 -0)
(-213.663 -105067 -0)
(-212.592 -105492 -0)
(-210.699 -105913 -0)
(-207.994 -106331 -0)
(-204.49 -106742 -0)
(-200.21 -107145 -0)
(-195.151 -107540 -0)
(-189.261 -107923 -0)
(-182.5 -108294 -0)
(-174.845 -108651 -0)
(-166.288 -108991 -0)
(-156.834 -109314 -0)
(-146.501 -109617 -0)
(-32.6866 -92204.6 -0)
(-88.5281 -92243.8 -0)
(-130.335 -92313.8 -0)
(-165.866 -92409.4 -0)
(-198.984 -92528 -0)
(-231.144 -92668.4 -0)
(-262.692 -92829.9 -0)
(-293.61 -93012.1 -0)
(-323.788 -93214.5 -0)
(-353.105 -93436.5 -0)
(-381.449 -93677.7 -0)
(-408.723 -93937.2 -0)
(-434.838 -94214.5 -0)
(-459.718 -94508.7 -0)
(-483.29 -94819 -0)
(-505.488 -95144.6 -0)
(-526.244 -95484.5 -0)
(-545.492 -95837.9 -0)
(-563.161 -96203.6 -0)
(-579.175 -96580.7 -0)
(-593.453 -96968 -0)
(-605.905 -97364.4 -0)
(-616.437 -97768.6 -0)
(-624.947 -98179.3 -0)
(-631.331 -98595.2 -0)
(-635.49 -99014.9 -0)
(-637.332 -99436.7 -0)
(-636.783 -99859.2 -0)
(-633.793 -100281 -0)
(-628.341 -100700 -0)
(-620.451 -101114 -0)
(-610.214 -101523 -0)
(-597.675 -101925 -0)
(-582.724 -102318 -0)
(-565.225 -102700 -0)
(-545.09 -103070 -0)
(-522.266 -103426 -0)
(-496.734 -103766 -0)
(-468.515 -104088 -0)
(-437.665 -104390 -0)
(-52.1392 -87722.4 -0)
(-142.164 -87761.7 -0)
(-211.346 -87829.8 -0)
(-271.034 -87922.4 -0)
(-326.586 -88037.7 -0)
(-380.228 -88174.7 -0)
(-432.634 -88332.7 -0)
(-483.893 -88511.2 -0)
(-533.898 -88709.6 -0)
(-582.49 -88927.6 -0)
(-629.504 -89164.6 -0)
(-674.784 -89419.8 -0)
(-718.189 -89692.7 -0)
(-759.589 -89982.6 -0)
(-798.862 -90288.6 -0)
(-835.893 -90609.9 -0)
(-870.568 -90945.7 -0)
(-902.77 -91295.1 -0)
(-932.379 -91657.1 -0)
(-959.264 -92030.6 -0)
(-983.287 -92414.6 -0)
(-1004.3 -92808 -0)
(-1022.13 -93209.5 -0)
(-1036.61 -93617.8 -0)
(-1047.58 -94031.7 -0)
(-1054.85 -94449.6 -0)
(-1058.27 -94870 -0)
(-1057.71 -95291.5 -0)
(-1053.09 -95712.3 -0)
(-1044.37 -96131 -0)
(-1031.71 -96545.8 -0)
(-1015.27 -96955.6 -0)
(-994.895 -97358.7 -0)
(-970.34 -97753.2 -0)
(-941.451 -98137.4 -0)
(-908.11 -98509.3 -0)
(-870.243 -98867.2 -0)
(-827.829 -99209.2 -0)
(-780.907 -99533.3 -0)
(-729.576 -99837.8 -0)
(-72.0393 -83790.1 -0)
(-195.932 -83830.1 -0)
(-291.026 -83897.8 -0)
(-373.816 -83988.9 -0)
(-451.26 -84101.9 -0)
(-526.084 -84236.2 -0)
(-599.141 -84391.1 -0)
(-670.571 -84566.4 -0)
(-740.262 -84761.5 -0)
(-808.017 -84976 -0)
(-873.626 -85209.4 -0)
(-936.881 -85461.2 -0)
(-997.589 -85730.6 -0)
(-1055.57 -86017 -0)
(-1110.65 -86319.8 -0)
(-1162.66 -86638.1 -0)
(-1211.45 -86971.1 -0)
(-1256.84 -87318 -0)
(-1298.66 -87677.8 -0)
(-1336.72 -88049.5 -0)
(-1370.83 -88432.1 -0)
(-1400.75 -88824.5 -0)
(-1426.27 -89225.5 -0)
(-1447.12 -89633.8 -0)
(-1463.07 -90048 -0)
(-1473.86 -90466.9 -0)
(-1479.26 -90888.7 -0)
(-1479.09 -91312.1 -0)
(-1473.26 -91735.3 -0)
(-1461.82 -92156.9 -0)
(-1445.13 -92575.6 -0)
(-1423.09 -92989.9 -0)
(-1395.26 -93397.9 -0)
(-1361.41 -93797.7 -0)
(-1321.35 -94187.4 -0)
(-1274.94 -94565 -0)
(-1222.1 -94928.6 -0)
(-1162.81 -95276.2 -0)
(-1097.13 -95606 -0)
(-1025.2 -95915.9 -0)
(-92.154 -80350.3 -0)
(-249.867 -80390.6 -0)
(-370.152 -80458.1 -0)
(-475.192 -80548.3 -0)
(-573.865 -80659.9 -0)
(-669.428 -80792.1 -0)
(-762.851 -80944.7 -0)
(-854.273 -81117.4 -0)
(-943.543 -81309.9 -0)
(-1030.42 -81521.8 -0)
(-1114.63 -81752.5 -0)
(-1195.93 -82001.7 -0)
(-1274.06 -82268.7 -0)
(-1348.8 -82553 -0)
(-1419.92 -82853.9 -0)
(-1487.21 -83170.7 -0)
(-1550.45 -83502.6 -0)
(-1609.42 -83848.7 -0)
(-1663.89 -84208.4 -0)
(-1713.6 -84580.5 -0)
(-1758.29 -84964 -0)
(-1797.66 -85358 -0)
(-1831.4 -85761.2 -0)
(-1859.19 -86172.3 -0)
(-1880.68 -86590.1 -0)
(-1895.54 -87013.1 -0)
(-1903.47 -87439.7 -0)
(-1904.26 -87868.5 -0)
(-1897.86 -88297.9 -0)
(-1884.7 -88726.6 -0)
(-1864.8 -89153.5 -0)
(-1837.58 -89576.3 -0)
(-1802.67 -89993.3 -0)
(-1759.79 -90402.3 -0)
(-1708.74 -90801.4 -0)
(-1649.34 -91188.5 -0)
(-1581.5 -91561.6 -0)
(-1505.21 -91918.6 -0)
(-1420.56 -92257.4 -0)
(-1327.74 -92576.1 -0)
(-112.287 -77345.4 -0)
(-303.711 -77385.4 -0)
(-448.813 -77452.5 -0)
(-575.588 -77542.1 -0)
(-695.006 -77652.5 -0)
(-810.938 -77783.3 -0)
(-924.487 -77934.3 -0)
(-1035.77 -78105.3 -0)
(-1144.59 -78296 -0)
(-1250.63 -78506.1 -0)
(-1353.57 -78735.3 -0)
(-1453.1 -78983.2 -0)
(-1548.91 -79249.2 -0)
(-1640.74 -79532.8 -0)
(-1728.29 -79833.5 -0)
(-1811.31 -80150.5 -0)
(-1889.52 -80483.3 -0)
(-1962.64 -80831 -0)
(-2030.37 -81192.9 -0)
(-2092.4 -81567.9 -0)
(-2148.36 -81955.2 -0)
(-2197.89 -82353.7 -0)
(-2240.6 -82762.3 -0)
(-2276.05 -83179.6 -0)
(-2303.82 -83604.4 -0)
(-2323.48 -84035.2 -0)
(-2334.68 -84470.5 -0)
(-2337.24 -84908.8 -0)
(-2331.38 -85348.7 -0)
(-2317.4 -85789.2 -0)
(-2294.82 -86228.3 -0)
(-2262.9 -86663.9 -0)
(-2221.24 -87094 -0)
(-2169.55 -87516.4 -0)
(-2107.59 -87928.9 -0)
(-2035.17 -88329.5 -0)
(-1952.18 -88715.8 -0)
(-1858.62 -89085.7 -0)
(-1754.62 -89437.1 -0)
(-1640.43 -89767.8 -0)
(-132.198 -74720 -0)
(-357.051 -74759.4 -0)
(-526.833 -74825.7 -0)
(-675.154 -74914.5 -0)
(-815.1 -75024.1 -0)
(-951.225 -75154 -0)
(-1084.8 -75304 -0)
(-1215.95 -75474.1 -0)
(-1344.39 -75664 -0)
(-1469.77 -75873.5 -0)
(-1591.69 -76102.5 -0)
(-1709.79 -76350.4 -0)
(-1823.7 -76617 -0)
(-1933.1 -76901.7 -0)
(-2037.66 -77204.1 -0)
(-2137.05 -77523.5 -0)
(-2230.94 -77859.5 -0)
(-2318.97 -78211.2 -0)
(-2400.78 -78577.9 -0)
(-2475.96 -78958.8 -0)
(-2544.09 -79352.9 -0)
(-2604.69 -79759.2 -0)
(-2657.27 -80176.5 -0)
(-2701.3 -80603.6 -0)
(-2736.25 -81039.2 -0)
(-2761.64 -81481.7 -0)
(-2777.08 -81929.8 -0)
(-2782.49 -82382 -0)
(-2778.3 -82837.1 -0)
(-2764.31 -83293.6 -0)
(-2739.52 -83749.2 -0)
(-2703.26 -84201.7 -0)
(-2655.11 -84649 -0)
(-2594.73 -85088.7 -0)
(-2521.83 -85518.5 -0)
(-2436.22 -85936.2 -0)
(-2337.78 -86339.4 -0)
(-2226.53 -86725.8 -0)
(-2102.63 -87093 -0)
(-1966.37 -87438.7 -0)
(-151.611 -72423.2 -0)
(-409.404 -72461.3 -0)
(-603.949 -72526.5 -0)
(-773.936 -72614.4 -0)
(-934.482 -72723.3 -0)
(-1090.87 -72852.8 -0)
(-1244.58 -73002.5 -0)
(-1395.74 -73172.6 -0)
(-1544.06 -73362.7 -0)
(-1689.11 -73572.9 -0)
(-1830.43 -73803 -0)
(-1967.59 -74052.5 -0)
(-2100.2 -74321.4 -0)
(-2227.85 -74609.1 -0)
(-2350.16 -74915.3 -0)
(-2466.74 -75239.4 -0)
(-2577.19 -75581 -0)
(-2681.09 -75939.4 -0)
(-2777.98 -76313.8 -0)
(-2867.37 -76703.5 -0)
(-2948.73 -77107.5 -0)
(-3021.48 -77524.9 -0)
(-3085.01 -77954.5 -0)
(-3138.7 -78395 -0)
(-3181.93 -78845.2 -0)
(-3214.13 -79303.5 -0)
(-3234.97 -79768.6 -0)
(-3244.53 -80238.9 -0)
(-3242.98 -80713.5 -0)
(-3229.5 -81189.9 -0)
(-3202.95 -81666 -0)
(-3162.67 -82139.3 -0)
(-3108.2 -82607.5 -0)
(-3039.12 -83068.3 -0)
(-2955.14 -83519 -0)
(-2856.03 -83957.3 -0)
(-2741.7 -84380.6 -0)
(-2612.16 -84786.5 -0)
(-2467.61 -85172.5 -0)
(-2308.42 -85536.2 -0)
(-170.278 -70408.5 -0)
(-460.335 -70444.9 -0)
(-679.921 -70508.6 -0)
(-871.973 -70595.6 -0)
(-1053.47 -70704 -0)
(-1230.43 -70833.5 -0)
(-1404.6 -70983.7 -0)
(-1576.15 -71154.6 -0)
(-1744.78 -71346.1 -0)
(-1909.99 -71558.2 -0)
(-2071.3 -71790.8 -0)
(-2228.21 -72043.6 -0)
(-2380.26 -72316.5 -0)
(-2527.01 -72609.2 -0)
(-2668 -72921.3 -0)
(-2802.78 -73252.4 -0)
(-2930.86 -73602 -0)
(-3051.75 -73969.6 -0)
(-3164.9 -74354.5 -0)
(-3269.7 -74756 -0)
(-3365.52 -75173 -0)
(-3451.66 -75604.8 -0)
(-3527.4 -76050 -0)
(-3591.99 -76507.6 -0)
(-3644.72 -76976 -0)
(-3685 -77453.9 -0)
(-3712.48 -77939.8 -0)
(-3727.4 -78432.3 -0)
(-3729.31 -78929.9 -0)
(-3716.82 -79430 -0)
(-3688.89 -79930.1 -0)
(-3644.83 -80427.8 -0)
(-3584.08 -80920.4 -0)
(-3506.2 -81405.5 -0)
(-3410.86 -81880.4 -0)
(-3297.82 -82342.3 -0)
(-3166.98 -82788.8 -0)
(-3018.4 -83217 -0)
(-2852.31 -83624.4 -0)
(-2669.13 -84008.5 -0)
(-188.023 -68634.6 -0)
(-509.53 -68669.1 -0)
(-754.587 -68731.1 -0)
(-969.344 -68817.1 -0)
(-1172.4 -68925.3 -0)
(-1370.49 -69055.2 -0)
(-1565.65 -69206.5 -0)
(-1758.16 -69379.1 -0)
(-1947.71 -69573.1 -0)
(-2133.77 -69788.3 -0)
(-2315.83 -70024.8 -0)
(-2493.33 -70282.5 -0)
(-2665.76 -70561.1 -0)
(-2832.61 -70860.6 -0)
(-2993.36 -71180.6 -0)
(-3147.5 -71520.9 -0)
(-3294.44 -71880.9 -0)
(-3433.6 -72260.3 -0)
(-3564.33 -72658.2 -0)
(-3685.9 -73074.2 -0)
(-3797.55 -73507.2 -0)
(-3898.47 -73956.3 -0)
(-3987.78 -74420.3 -0)
(-4064.64 -74898 -0)
(-4128.25 -75388.1 -0)
(-4177.95 -75889 -0)
(-4213.43 -76399.2 -0)
(-4234.68 -76917.5 -0)
(-4240.65 -77441.3 -0)
(-4229.67 -77968.2 -0)
(-4200.7 -78495.6 -0)
(-4153.01 -79020.7 -0)
(-4085.96 -79540.9 -0)
(-3999.06 -80053.3 -0)
(-3891.96 -80555.2 -0)
(-3764.42 -81043.6 -0)
(-3616.35 -81515.7 -0)
(-3447.83 -81968.8 -0)
(-3259.14 -82400.1 -0)
(-3050.77 -82806.8 -0)
(-204.747 -67065.4 -0)
(-556.817 -67097.8 -0)
(-827.885 -67158 -0)
(-1066.18 -67243 -0)
(-1291.61 -67351.3 -0)
(-1511.6 -67482 -0)
(-1728.49 -67635 -0)
(-1942.71 -67810.2 -0)
(-2153.97 -68007.5 -0)
(-2361.74 -68227.1 -0)
(-2565.46 -68468.8 -0)
(-2764.54 -68732.7 -0)
(-2958.42 -69018.8 -0)
(-3146.53 -69326.8 -0)
(-3328.28 -69656.6 -0)
(-3503.06 -70007.9 -0)
(-3670.22 -70380.4 -0)
(-3829.06 -70773.7 -0)
(-3978.81 -71187 -0)
(-4118.63 -71619.9 -0)
(-4247.61 -72071.3 -0)
(-4364.8 -72540.4 -0)
(-4469.18 -73026 -0)
(-4559.78 -73526.8 -0)
(-4635.67 -74041.4 -0)
(-4696.14 -74568.3 -0)
(-4740.96 -75105.9 -0)
(-4769.51 -75652.6 -0)
(-4780.08 -76205.6 -0)
(-4771.07 -76762.2 -0)
(-4741.37 -77319.7 -0)
(-4690.15 -77875.1 -0)
(-4616.69 -78425.5 -0)
(-4520.47 -78968 -0)
(-4401.11 -79499.4 -0)
(-4258.38 -80016.8 -0)
(-4092.23 -80517.1 -0)
(-3902.76 -80997.3 -0)
(-3690.29 -81454.6 -0)
(-3455.37 -81886 -0)
(-220.424 -65669.1 -0)
(-602.159 -65699.4 -0)
(-899.85 -65757.9 -0)
(-1162.64 -65842.1 -0)
(-1411.43 -65950.7 -0)
(-1654.26 -66082.7 -0)
(-1893.81 -66238 -0)
(-2130.66 -66416.4 -0)
(-2364.57 -66618 -0)
(-2595.04 -66842.8 -0)
(-2821.48 -67090.9 -0)
(-3043.27 -67362.4 -0)
(-3259.8 -67657.1 -0)
(-3470.43 -67975.1 -0)
(-3674.51 -68316.3 -0)
(-3871.35 -68680.4 -0)
(-4060.19 -69067.1 -0)
(-4240.22 -69476.1 -0)
(-4410.54 -69906.9 -0)
(-4570.18 -70358.7 -0)
(-4718.09 -70830.7 -0)
(-4853.15 -71322 -0)
(-4974.19 -71831.5 -0)
(-5080.07 -72357.8 -0)
(-5169.76 -72899.5 -0)
(-5242.43 -73454.9 -0)
(-5297.72 -74022.4 -0)
(-5334.38 -74599.9 -0)
(-5350.24 -75184.5 -0)
(-5343.69 -75773.3 -0)
(-5313.55 -76363.4 -0)
(-5258.87 -76951.6 -0)
(-5178.87 -77534.8 -0)
(-5072.96 -78109.8 -0)
(-4940.77 -78673.3 -0)
(-4782.1 -79222 -0)
(-4596.91 -79752.8 -0)
(-4385.35 -80262.5 -0)
(-4147.79 -80747.8 -0)
(-3884.86 -81205.9 -0)
(-235.088 -64418.6 -0)
(-645.625 -64447 -0)
(-970.586 -64503.8 -0)
(-1258.94 -64587.4 -0)
(-1532.2 -64696.4 -0)
(-1798.95 -64830.1 -0)
(-2062.21 -64988.2 -0)
(-2322.73 -65170.5 -0)
(-2580.37 -65377 -0)
(-2834.65 -65607.9 -0)
(-3084.98 -65863.3 -0)
(-3330.7 -66143.2 -0)
(-3571.17 -66447.8 -0)
(-3805.7 -66777 -0)
(-4033.54 -67130.8 -0)
(-4253.92 -67509 -0)
(-4465.99 -67911.4 -0)
(-4668.8 -68337.6 -0)
(-4861.33 -68787.3 -0)
(-5042.46 -69259.7 -0)
(-5210.98 -69754 -0)
(-5365.58 -70269.4 -0)
(-5504.94 -70804.6 -0)
(-5627.73 -71358.4 -0)
(-5732.77 -71929.1 -0)
(-5819.1 -72515.1 -0)
(-5885.98 -73114.7 -0)
(-5931.58 -73725.1 -0)
(-5953.46 -74343.5 -0)
(-5949.93 -74966.8 -0)
(-5919.67 -75591.8 -0)
(-5861.62 -76215.3 -0)
(-5774.92 -76833.8 -0)
(-5658.95 -77443.7 -0)
(-5513.34 -78041.7 -0)
(-5337.9 -78624.2 -0)
(-5132.65 -79187.9 -0)
(-4897.78 -79729.2 -0)
(-4633.74 -80244.9 -0)
(-4341.2 -80731.8 -0)
(-248.817 -63290.2 -0)
(-687.363 -63316.8 -0)
(-1040.25 -63372.2 -0)
(-1355.26 -63455.3 -0)
(-1654.19 -63565 -0)
(-1946.03 -63700.7 -0)
(-2234.16 -63861.9 -0)
(-2519.5 -64048.5 -0)
(-2802.04 -64260.6 -0)
(-3081.33 -64498.2 -0)
(-3356.8 -64761.5 -0)
(-3627.77 -65050.8 -0)
(-3893.55 -65365.9 -0)
(-4153.39 -65707.2 -0)
(-4406.49 -66074.5 -0)
(-4651.97 -66467.8 -0)
(-4888.87 -66886.9 -0)
(-5116.13 -67331.5 -0)
(-5332.58 -67801.2 -0)
(-5536.93 -68295.5 -0)
(-5727.81 -68813.5 -0)
(-5903.73 -69354.2 -0)
(-6063.15 -69916.7 -0)
(-6204.54 -70499.5 -0)
(-6326.5 -71100.9 -0)
(-6428.02 -71719.3 -0)
(-6507.73 -72352.6 -0)
(-6563.19 -72997.9 -0)
(-6591.92 -73652.1 -0)
(-6592.04 -74312.1 -0)
(-6562.07 -74974.4 -0)
(-6500.79 -75635.5 -0)
(-6407.3 -76291.7 -0)
(-6280.92 -76939.1 -0)
(-6121.29 -77574.2 -0)
(-5928.25 -78193.1 -0)
(-5701.86 -78792.2 -0)
(-5442.4 -79367.8 -0)
(-5150.38 -79916.3 -0)
(-4826.53 -80434.3 -0)
(-261.713 -62263.7 -0)
(-727.571 -62288.8 -0)
(-1109.02 -62342.8 -0)
(-1451.81 -62425.6 -0)
(-1777.63 -62536.3 -0)
(-2095.81 -62674.1 -0)
(-2410.01 -62838.7 -0)
(-2721.4 -63030 -0)
(-3030.07 -63247.9 -0)
(-3335.63 -63492.6 -0)
(-3637.53 -63764.4 -0)
(-3935.1 -64063.4 -0)
(-4227.61 -64389.7 -0)
(-4514.24 -64743.6 -0)
(-4794.14 -65125 -0)
(-5066.32 -65534 -0)
(-5329.72 -65970.5 -0)
(-5583.15 -66434.2 -0)
(-5825.28 -66924.8 -0)
(-6054.67 -67441.8 -0)
(-6269.75 -67984.3 -0)
(-6468.83 -68551.5 -0)
(-6650.16 -69142.4 -0)
(-6811.96 -69755.4 -0)
(-6952.58 -70389 -0)
(-7070.78 -71041.2 -0)
(-7164.6 -71709.8 -0)
(-7231.09 -72391.7 -0)
(-7267.66 -73083.7 -0)
(-7272.22 -73782.5 -0)
(-7243.08 -74484.4 -0)
(-7178.87 -75185.7 -0)
(-7078.57 -75882.2 -0)
(-6941.51 -76570 -0)
(-6767.34 -77245.1 -0)
(-6555.88 -77903.3 -0)
(-6307.27 -78540.7 -0)
(-6021.88 -79153.5 -0)
(-5700.28 -79737.7 -0)
(-5343.27 -80289.5 -0)
(-273.895 -61321.6 -0)
(-766.471 -61345.4 -0)
(-1177.09 -61398.3 -0)
(-1548.74 -61481 -0)
(-1902.68 -61592.7 -0)
(-2248.45 -61732.8 -0)
(-2589.99 -61900.9 -0)
(-2928.67 -62096.9 -0)
(-3264.72 -62320.9 -0)
(-3597.85 -62573 -0)
(-3927.52 -62853.4 -0)
(-4253.08 -63162.3 -0)
(-4573.75 -63500 -0)
(-4888.68 -63866.8 -0)
(-5196.94 -64262.6 -0)
(-5497.47 -64687.7 -0)
(-5789.08 -65141.9 -0)
(-6070.44 -65625.1 -0)
(-6340.09 -66137 -0)
(-6596.4 -66677.1 -0)
(-6837.61 -67244.8 -0)
(-7061.8 -67839.3 -0)
(-7266.99 -68459.3 -0)
(-7451.13 -69103.5 -0)
(-7612.3 -69770.2 -0)
(-7748.86 -70457.7 -0)
(-7858.23 -71163.1 -0)
(-7937.12 -71883.3 -0)
(-7982.73 -72615.2 -0)
(-7992.76 -73355.1 -0)
(-7965.23 -74099.1 -0)
(-7898.56 -74843.2 -0)
(-7791.63 -75583.1 -0)
(-7643.76 -76314.4 -0)
(-7454.57 -77032.7 -0)
(-7223.93 -77733.6 -0)
(-6952.04 -78412.8 -0)
(-6639.33 -79066.2 -0)
(-6286.46 -79689.4 -0)
(-5894.3 -80278.4 -0)
(-285.531 -60448.6 -0)
(-804.338 -60471.5 -0)
(-1244.62 -60523.6 -0)
(-1646.17 -60606.2 -0)
(-2029.44 -60719 -0)
(-2404.04 -60861.4 -0)
(-2774.16 -61033.1 -0)
(-3141.38 -61233.9 -0)
(-3506.09 -61463.9 -0)
(-3868.08 -61723.2 -0)
(-4226.86 -62012.2 -0)
(-4581.79 -62331.1 -0)
(-4932.07 -62680.2 -0)
(-5276.83 -63059.8 -0)
(-5615.04 -63470.1 -0)
(-5945.58 -63911.1 -0)
(-6267.13 -64383.1 -0)
(-6578.26 -64885.9 -0)
(-6877.32 -65419.2 -0)
(-7162.53 -65982.8 -0)
(-7431.88 -66576 -0)
(-7683.26 -67198 -0)
(-7914.38 -67847.8 -0)
(-8122.92 -68524 -0)
(-8306.78 -69225 -0)
(-8463.62 -69948.8 -0)
(-8590.26 -70692.4 -0)
(-8683.21 -71452.9 -0)
(-8739.38 -72226.7 -0)
(-8756.15 -73010.1 -0)
(-8731.24 -73799 -0)
(-8662.86 -74589 -0)
(-8549.73 -75375.6 -0)
(-8391.09 -76153.9 -0)
(-8186.55 -76919.3 -0)
(-7936.05 -77666.9 -0)
(-7639.84 -78392 -0)
(-7298.41 -79089.9 -0)
(-6912.5 -79756.2 -0)
(-6483.07 -80386.2 -0)
(-296.763 -59631.8 -0)
(-841.449 -59654 -0)
(-1311.82 -59705.5 -0)
(-1744.16 -59788.2 -0)
(-2157.88 -59902.1 -0)
(-2562.52 -60046.8 -0)
(-2962.45 -60221.8 -0)
(-3359.45 -60427.3 -0)
(-3754.07 -60663.1 -0)
(-4146.2 -60929.5 -0)
(-4535.42 -61226.9 -0)
(-4921.09 -61555.5 -0)
(-5302.43 -61915.7 -0)
(-5678.52 -62307.8 -0)
(-6048.28 -62732.2 -0)
(-6410.51 -63189.1 -0)
(-6763.79 -63678.5 -0)
(-7106.56 -64200.7 -0)
(-7437.01 -64755.3 -0)
(-7753.17 -65342.3 -0)
(-8052.83 -65961 -0)
(-8333.62 -66610.9 -0)
(-8592.98 -67290.9 -0)
(-8828.29 -67999.7 -0)
(-9037.05 -68735.8 -0)
(-9216.31 -69497.1 -0)
(-9362.33 -70280.5 -0)
(-9471.36 -71082.9 -0)
(-9539.96 -71901 -0)
(-9565.1 -72730.6 -0)
(-9544.19 -73567.4 -0)
(-9475.16 -74406.9 -0)
(-9356.54 -75243.9 -0)
(-9187.45 -76073.5 -0)
(-8967.49 -76890.3 -0)
(-8696.61 -77689.3 -0)
(-8375.12 -78465.1 -0)
(-8003.57 -79212.6 -0)
(-7582.75 -79926.8 -0)
(-7113.72 -80602.5 -0)
(-307.722 -58859.9 -0)
(-878.05 -58881.6 -0)
(-1378.84 -58932.8 -0)
(-1842.75 -59015.7 -0)
(-2287.96 -59130.6 -0)
(-2723.76 -59277.3 -0)
(-3154.66 -59455.6 -0)
(-3582.63 -59665.3 -0)
(-4008.37 -59906.7 -0)
(-4431.89 -60179.8 -0)
(-4852.83 -60485.1 -0)
(-5270.6 -60823 -0)
(-5684.42 -61193.8 -0)
(-6093.35 -61598 -0)
(-6496.27 -62036 -0)
(-6891.89 -62508 -0)
(-7278.71 -63014.5 -0)
(-7655.04 -63555.6 -0)
(-8018.93 -64131.2 -0)
(-8368.22 -64741.2 -0)
(-8700.5 -65385.4 -0)
(-9013.12 -66063.1 -0)
(-9303.23 -66773.5 -0)
(-9567.9 -67515.5 -0)
(-9804.12 -68287.5 -0)
(-10008.3 -69087.3 -0)
(-10176.2 -69912 -0)
(-10303.7 -70758.5 -0)
(-10387 -71623.2 -0)
(-10422.6 -72501.9 -0)
(-10407.5 -73390.2 -0)
(-10339.3 -74282.9 -0)
(-10216.3 -75174.9 -0)
(-10037.5 -76060.6 -0)
(-9802.34 -76934.2 -0)
(-9510.8 -77790.1 -0)
(-9163.2 -78622.4 -0)
(-8760.11 -79425.4 -0)
(-8302.4 -80193.2 -0)
(-7791.21 -80920.3 -0)
(-318.525 -58123.1 -0)
(-914.353 -58144.6 -0)
(-1445.84 -58195.6 -0)
(-1941.96 -58278.7 -0)
(-2419.52 -58394.5 -0)
(-2887.52 -58543.1 -0)
(-3350.47 -58724.2 -0)
(-3810.53 -58937.9 -0)
(-4268.55 -59184.3 -0)
(-4724.65 -59463.6 -0)
(-5178.56 -59776.2 -0)
(-5629.75 -60122.6 -0)
(-6077.44 -60503.4 -0)
(-6520.69 -60918.9 -0)
(-6958.36 -61369.7 -0)
(-7389.09 -61856.3 -0)
(-7811.3 -62379.1 -0)
(-8223.18 -62938.4 -0)
(-8622.66 -63534.3 -0)
(-9007.38 -64166.9 -0)
(-9374.72 -64836.2 -0)
(-9721.78 -65541.6 -0)
(-10045.4 -66282.5 -0)
(-10342.3 -67058 -0)
(-10608.9 -67866.6 -0)
(-10840.8 -68706 -0)
(-11033.5 -69573.5 -0)
(-11182.5 -70466.2 -0)
(-11283.4 -71380.2 -0)
(-11332.1 -72311.3 -0)
(-11325.2 -73254.8 -0)
(-11259.9 -74205.5 -0)
(-11134.2 -75157.5 -0)
(-10946.8 -76105 -0)
(-10697 -77041.6 -0)
(-10384.8 -77961.1 -0)
(-10010.4 -78856.8 -0)
(-9574.41 -79722.2 -0)
(-9077.69 -80550.8 -0)
(-8521.51 -81335.9 -0)
(-329.267 -57413 -0)
(-950.535 -57434.5 -0)
(-1512.88 -57485.4 -0)
(-2041.72 -57568.7 -0)
(-2552.4 -57685.4 -0)
(-3053.47 -57835.5 -0)
(-3549.47 -58019.1 -0)
(-4042.65 -58236.2 -0)
(-4534.01 -58486.9 -0)
(-5023.82 -58771.7 -0)
(-5511.9 -59090.9 -0)
(-5997.76 -59445.1 -0)
(-6480.68 -59834.8 -0)
(-6959.72 -60260.8 -0)
(-7433.71 -60723.5 -0)
(-7901.26 -61223.6 -0)
(-8360.74 -61761.8 -0)
(-8810.23 -62338.3 -0)
(-9247.51 -62953.8 -0)
(-9670.09 -63608.3 -0)
(-10075.1 -64302 -0)
(-10459.5 -65034.7 -0)
(-10819.6 -65806 -0)
(-11151.9 -66615.2 -0)
(-11452.1 -67460.9 -0)
(-11715.2 -68341 -0)
(-11936.3 -69253 -0)
(-12110.3 -70194 -0)
(-12232.2 -71160.2 -0)
(-12297.3 -72147.4 -0)
(-12301.7 -73150.6 -0)
(-12242 -74164.3 -0)
(-12115.9 -75182.3 -0)
(-11921.6 -76198.3 -0)
(-11658.4 -77205.3 -0)
(-11326 -78196.1 -0)
(-10924.3 -79163.5 -0)
(-10454.1 -80099.8 -0)
(-9916.09 -80997.4 -0)
(-9311.7 -81848.7 -0)
(-340.024 -56722.3 -0)
(-986.729 -56743.9 -0)
(-1580.03 -56794.8 -0)
(-2141.95 -56878.3 -0)
(-2686.33 -56995.6 -0)
(-3221.24 -57147 -0)
(-3751.13 -57332.5 -0)
(-4278.36 -57552.4 -0)
(-4804.05 -57806.8 -0)
(-5328.62 -58096.2 -0)
(-5851.97 -58421.1 -0)
(-6373.7 -58782 -0)
(-6893.14 -59179.8 -0)
(-7409.38 -59615 -0)
(-7921.25 -60088.5 -0)
(-8427.35 -60601 -0)
(-8925.99 -61153.3 -0)
(-9415.18 -61746 -0)
(-9892.6 -62379.9 -0)
(-10355.6 -63055.3 -0)
(-10801.2 -63772.6 -0)
(-11225.8 -64532.1 -0)
(-11625.9 -65333.5 -0)
(-11997.2 -66176.4 -0)
(-12334.6 -67059.5 -0)
(-12632.9 -67981.3 -0)
(-12886.5 -68939.4 -0)
(-13089.7 -69931 -0)
(-13236.8 -70952.6 -0)
(-13322.5 -71999.8 -0)
(-13342 -73067.6 -0)
(-13291.6 -74150.2 -0)
(-13168.2 -75241.1 -0)
(-12969.7 -76333.3 -0)
(-12694.9 -77419.3 -0)
(-12343.1 -78491 -0)
(-11914.1 -79540 -0)
(-11408.3 -80557.3 -0)
(-10826.6 -81534 -0)
(-10170.3 -82461.1 -0)
(-350.854 -56044.8 -0)
(-1023.03 -56066.5 -0)
(-1647.3 -56117.5 -0)
(-2242.51 -56201.1 -0)
(-2821.03 -56318.8 -0)
(-3390.37 -56471 -0)
(-3954.87 -56657.9 -0)
(-4516.94 -56879.8 -0)
(-5077.84 -57137.1 -0)
(-5638.1 -57430.2 -0)
(-6197.74 -57759.7 -0)
(-6756.45 -58126.3 -0)
(-7313.64 -58530.8 -0)
(-7868.44 -58974 -0)
(-8419.72 -59456.9 -0)
(-8966.06 -59980.4 -0)
(-9505.77 -60545.5 -0)
(-10036.8 -61153 -0)
(-10556.8 -61803.9 -0)
(-11062.9 -62499 -0)
(-11552 -63239 -0)
(-12020.3 -64024.3 -0)
(-12463.9 -64855.2 -0)
(-12878 -65731.5 -0)
(-13257 -66652.4 -0)
(-13595.1 -67616.7 -0)
(-13886.1 -68622.4 -0)
(-14123.5 -69667 -0)
(-14300.9 -70747.2 -0)
(-14412.3 -71858.7 -0)
(-14452 -72996.5 -0)
(-14415.5 -74154.6 -0)
(-14299 -75326.3 -0)
(-14099.9 -76504 -0)
(-13816.1 -77679.2 -0)
(-13446.6 -78843 -0)
(-12990.6 -79985.4 -0)
(-12448.1 -81096 -0)
(-11819.9 -82164 -0)
(-11107.4 -83178.5 -0)
(-361.791 -55374.9 -0)
(-1059.48 -55396.9 -0)
(-1714.64 -55448 -0)
(-2343.21 -55531.6 -0)
(-2956.15 -55649.3 -0)
(-3560.36 -55801.9 -0)
(-4160.02 -55989.6 -0)
(-4757.6 -56212.9 -0)
(-5354.45 -56472.1 -0)
(-5951.21 -56767.9 -0)
(-6548.06 -57100.8 -0)
(-7144.78 -57471.8 -0)
(-7740.86 -57881.6 -0)
(-8335.5 -58331.4 -0)
(-8927.64 -58822.2 -0)
(-9515.9 -59355 -0)
(-10098.6 -59931.2 -0)
(-10673.6 -60551.9 -0)
(-11238.6 -61218.3 -0)
(-11790.7 -61931.6 -0)
(-12326.4 -62692.7 -0)
(-12842.1 -63502.7 -0)
(-13333.2 -64362.2 -0)
(-13794.3 -65271.4 -0)
(-14219.7 -66230 -0)
(-14602.9 -67237.3 -0)
(-14936.9 -68291.9 -0)
(-15214.5 -69391.8 -0)
(-15428.5 -70533.9 -0)
(-15571.8 -71714.3 -0)
(-15638 -72928.1 -0)
(-15621.4 -74169.2 -0)
(-15517.5 -75430.7 -0)
(-15322.6 -76704.5 -0)
(-15033.9 -77981.2 -0)
(-14649.2 -79250.4 -0)
(-14167.1 -80500.7 -0)
(-13586.9 -81719.6 -0)
(-12909.1 -82893.7 -0)
(-12135.4 -84010 -0)
(-372.852 -54708.1 -0)
(-1096.08 -54730.4 -0)
(-1781.97 -54781.5 -0)
(-2443.85 -54864.9 -0)
(-3091.3 -54982.4 -0)
(-3730.65 -55134.8 -0)
(-4365.87 -55322.7 -0)
(-4999.45 -55546.4 -0)
(-5632.84 -55806.6 -0)
(-6266.81 -56103.9 -0)
(-6901.64 -56439 -0)
(-7537.26 -56812.9 -0)
(-8173.27 -57226.7 -0)
(-8808.97 -57681.3 -0)
(-9443.36 -58178.2 -0)
(-10075.1 -58718.7 -0)
(-10702.7 -59304.1 -0)
(-11323.9 -59936.1 -0)
(-11936.4 -60616.1 -0)
(-12537.3 -61345.6 -0)
(-13123.1 -62126.2 -0)
(-13689.8 -62959.4 -0)
(-14232.6 -63846.1 -0)
(-14745.7 -64787.1 -0)
(-15222.9 -65782.9 -0)
(-15657 -66833.5 -0)
(-16040.6 -67938.1 -0)
(-16365.5 -69095.2 -0)
(-16623.5 -70302.5 -0)
(-16806.5 -71556.6 -0)
(-16907 -72852.7 -0)
(-16918.2 -74185.2 -0)
(-16834.3 -75546.8 -0)
(-16650.3 -76929 -0)
(-16362.1 -78321.6 -0)
(-15966.2 -79712.7 -0)
(-15459.7 -81088.5 -0)
(-14841.1 -82434 -0)
(-14110.3 -83732.7 -0)
(-13269.1 -84968.1 -0)
(-384.039 -54040.5 -0)
(-1132.82 -54062.9 -0)
(-1849.17 -54114 -0)
(-2544.14 -54197.1 -0)
(-3226.05 -54314 -0)
(-3900.62 -54465.7 -0)
(-4571.63 -54652.9 -0)
(-5241.55 -54876.3 -0)
(-5911.92 -55136.4 -0)
(-6583.62 -55434 -0)
(-7257.1 -55769.9 -0)
(-7932.39 -56145.2 -0)
(-8609.23 -56561.1 -0)
(-9287.06 -57018.9 -0)
(-9964.99 -57520 -0)
(-10641.8 -58066 -0)
(-11316 -58658.6 -0)
(-11985.6 -59299.6 -0)
(-12648.1 -59991 -0)
(-13300.8 -60734.6 -0)
(-13940.2 -61532.6 -0)
(-14561.9 -62386.7 -0)
(-15160.9 -63298.8 -0)
(-15731.2 -64270.2 -0)
(-16266.1 -65302.2 -0)
(-16758 -66395.6 -0)
(-17198.6 -67550.7 -0)
(-17579 -68766.7 -0)
(-17889.9 -70042.3 -0)
(-18122 -71374.6 -0)
(-18266.6 -72759.9 -0)
(-18315.5 -74192.8 -0)
(-18261.4 -75666.2 -0)
(-18097.4 -77171.4 -0)
(-17817.5 -78697.1 -0)
(-17416.1 -80229.7 -0)
(-16888.4 -81752.8 -0)
(-16231.1 -83247.7 -0)
(-15443.2 -84693.8 -0)
(-14527 -86070.2 -0)
(-395.334 -53368.5 -0)
(-1169.62 -53391.2 -0)
(-1916.09 -53442.1 -0)
(-2643.8 -53524.5 -0)
(-3359.93 -53640.4 -0)
(-4069.63 -53790.9 -0)
(-4776.47 -53976.8 -0)
(-5482.89 -54198.8 -0)
(-6190.5 -54457.7 -0)
(-6900.32 -54754.2 -0)
(-7612.91 -55089.5 -0)
(-8328.49 -55464.6 -0)
(-9046.94 -55880.9 -0)
(-9767.84 -56339.9 -0)
(-10490.5 -56843.1 -0)
(-11213.8 -57392.4 -0)
(-11936.3 -57989.7 -0)
(-12656.3 -58637.4 -0)
(-13371.4 -59337.5 -0)
(-14078.9 -60092.6 -0)
(-14775.2 -60905.2 -0)
(-15456 -61777.8 -0)
(-16116 -62712.6 -0)
(-16749.2 -63712.2 -0)
(-17348.3 -64778.7 -0)
(-17905.5 -65913.9 -0)
(-18411.7 -67119.1 -0)
(-18857.1 -68395 -0)
(-19231.4 -69741.2 -0)
(-19524.1 -71156.3 -0)
(-19725.1 -72637.6 -0)
(-19824.5 -74180.5 -0)
(-19812.8 -75778.9 -0)
(-19681.1 -77423.7 -0)
(-19420.4 -79103.1 -0)
(-19021.9 -80801.3 -0)
(-18477.7 -82498.7 -0)
(-17782.1 -84171.8 -0)
(-16932.8 -85794.4 -0)
(-15932 -87339.3 -0)
(-406.707 -52689.4 -0)
(-1206.39 -52712.2 -0)
(-1982.51 -52762.8 -0)
(-2742.48 -52844.3 -0)
(-3492.44 -52958.8 -0)
(-4237 -53107.5 -0)
(-4979.53 -53291.2 -0)
(-5722.42 -53510.9 -0)
(-6467.36 -53767.4 -0)
(-7215.48 -54061.6 -0)
(-7967.5 -54394.7 -0)
(-8723.81 -54767.9 -0)
(-9484.45 -55182.6 -0)
(-10249.2 -55640.6 -0)
(-11017.5 -56143.7 -0)
(-11788.5 -56693.8 -0)
(-12561 -57293.3 -0)
(-13333.3 -57944.7 -0)
(-14103.4 -58650.6 -0)
(-14868.6 -59414.1 -0)
(-15625.3 -60238.1 -0)
(-16369.3 -61125.8 -0)
(-17095.4 -62080.3 -0)
(-17797.3 -63105 -0)
(-18467.8 -64203.2 -0)
(-19098.4 -65378 -0)
(-19679.7 -66632.1 -0)
(-20201.1 -67967.7 -0)
(-20651.2 -69386.1 -0)
(-21018.4 -70887.7 -0)
(-21290.8 -72471.5 -0)
(-21456.9 -74134.7 -0)
(-21504.5 -75872.3 -0)
(-21421.6 -77676 -0)
(-21195.1 -79533.5 -0)
(-20811.8 -81426.9 -0)
(-20258.9 -83332.5 -0)
(-19526.7 -85220.5 -0)
(-18610.7 -87056.8 -0)
(-17513.3 -88805.7 -0)
(-418.116 -52000.9 -0)
(-1242.99 -52023.7 -0)
(-2048.23 -52073.8 -0)
(-2839.83 -52154.2 -0)
(-3623.04 -52266.8 -0)
(-4402.02 -52412.9 -0)
(-5179.9 -52593.7 -0)
(-5959.05 -52810.1 -0)
(-6741.2 -53062.9 -0)
(-7527.62 -53353.4 -0)
(-8319.19 -53682.7 -0)
(-9116.47 -54052.1 -0)
(-9919.7 -54463.4 -0)
(-10728.9 -54918.2 -0)
(-11543.6 -55418.6 -0)
(-12363.4 -55966.9 -0)
(-13187.2 -56565.7 -0)
(-14013.6 -57217.7 -0)
(-14840.8 -57926.1 -0)
(-15666.4 -58694.3 -0)
(-16486.9 -59525.8 -0)
(-17298.2 -60424.5 -0)
(-18095.3 -61394.5 -0)
(-18872.1 -62440.3 -0)
(-19621.4 -63566.4 -0)
(-20334.4 -64777.3 -0)
(-21001.4 -66077.6 -0)
(-21611.1 -67471.2 -0)
(-22151.4 -68961.9 -0)
(-22609.5 -70552.5 -0)
(-22972.1 -72244.5 -0)
(-23225.3 -74038 -0)
(-23354.2 -75930.2 -0)
(-23342.4 -77914.7 -0)
(-23171.3 -79979.1 -0)
(-22820.8 -82103.9 -0)
(-22271.3 -84260.4 -0)
(-21506.5 -86410.7 -0)
(-20518 -88509.7 -0)
(-19308.3 -90509.2 -0)
(-429.507 -51301.1 -0)
(-1279.27 -51323.8 -0)
(-2112.96 -51373.1 -0)
(-2935.44 -51452 -0)
(-3751.2 -51562.2 -0)
(-4563.96 -51705.3 -0)
(-5376.67 -51882.3 -0)
(-6191.65 -52094.3 -0)
(-7010.7 -52342.3 -0)
(-7835.22 -52627.6 -0)
(-8666.25 -52951.4 -0)
(-9504.52 -53315.3 -0)
(-10350.5 -53720.9 -0)
(-11204.4 -54170.3 -0)
(-12066.2 -54665.5 -0)
(-12935.6 -55209.1 -0)
(-13811.7 -55803.9 -0)
(-14693.8 -56453.1 -0)
(-15580 -57160.2 -0)
(-16468.3 -57928.9 -0)
(-17355.5 -58763.3 -0)
(-18238 -59668.2 -0)
(-19111.2 -60648.6 -0)
(-19969.1 -61710.2 -0)
(-20804.8 -62858.8 -0)
(-21609.6 -64100.8 -0)
(-22373.6 -65442.5 -0)
(-23085.4 -66890.7 -0)
(-23732.4 -68451.6 -0)
(-24300.9 -70131.6 -0)
(-24776.3 -71935.9 -0)
(-25142.5 -73868.6 -0)
(-25381.2 -75931.1 -0)
(-25470.6 -78120.2 -0)
(-25384.4 -80425.5 -0)
(-25093 -82826 -0)
(-24565.6 -85287.7 -0)
(-23776.1 -87762.4 -0)
(-22709.2 -90189.5 -0)
(-21366.6 -92502.5 -0)
(-440.819 -50588.4 -0)
(-1315.06 -50610.8 -0)
(-2176.44 -50659.3 -0)
(-3028.91 -50736.2 -0)
(-3876.34 -50843.6 -0)
(-4722.07 -50982.9 -0)
(-5568.9 -51155.3 -0)
(-6419.1 -51361.9 -0)
(-7274.54 -51603.9 -0)
(-8136.74 -51882.6 -0)
(-9006.9 -52199.3 -0)
(-9885.96 -52555.7 -0)
(-10774.6 -52953.6 -0)
(-11673.4 -53395 -0)
(-12582.5 -53882.3 -0)
(-13501.8 -54418.2 -0)
(-14431.2 -55005.7 -0)
(-15369.9 -55648.3 -0)
(-16316.6 -56349.7 -0)
(-17269.5 -57114 -0)
(-18226.2 -57946.2 -0)
(-19183.5 -58851.5 -0)
(-20137.3 -59836.2 -0)
(-21082.3 -60906.9 -0)
(-22011.9 -62071.1 -0)
(-22918.1 -63337 -0)
(-23791.2 -64713.4 -0)
(-24620.1 -66209.6 -0)
(-25392.3 -67835.9 -0)
(-26093.8 -69602.6 -0)
(-26709.1 -71520.3 -0)
(-27220.5 -73599 -0)
(-27605.8 -75846.3 -0)
(-27836.7 -78265.3 -0)
(-27877 -80849.7 -0)
(-27683 -83579.7 -0)
(-27207.7 -86416 -0)
(-26408.4 -89297.4 -0)
(-25258.1 -92142 -0)
(-23753.8 -94854.1 -0)
(-451.982 -49861.7 -0)
(-1350.18 -49883.8 -0)
(-2238.36 -49931 -0)
(-3119.81 -50005.8 -0)
(-3997.89 -50109.8 -0)
(-4875.62 -50244.7 -0)
(-5755.66 -50411.6 -0)
(-6640.28 -50611.9 -0)
(-7531.39 -50846.6 -0)
(-8430.62 -51117.3 -0)
(-9339.36 -51425.2 -0)
(-10258.8 -51772.2 -0)
(-11189.8 -52160.2 -0)
(-12133.1 -52591.2 -0)
(-13089.4 -53067.8 -0)
(-14059 -53592.8 -0)
(-15041.9 -54169.4 -0)
(-16037.7 -54801.2 -0)
(-17045.8 -55492.1 -0)
(-18064.8 -56246.8 -0)
(-19093 -57070.7 -0)
(-20128 -57969.8 -0)
(-21166.5 -58951.4 -0)
(-22204.1 -60023.1 -0)
(-23234.9 -61194.1 -0)
(-24251.8 -62474.5 -0)
(-25246.2 -63875.7 -0)
(-26207.9 -65410.5 -0)
(-27125.4 -67093.1 -0)
(-27985.4 -68939.6 -0)
(-28772.7 -70967.2 -0)
(-29468.6 -73194.1 -0)
(-30047.6 -75637.6 -0)
(-30474 -78310.7 -0)
(-30698.8 -81216.3 -0)
(-30659.2 -84339.6 -0)
(-30283.4 -87638.5 -0)
(-29502.2 -91037 -0)
(-28265.9 -94423.6 -0)
(-26559.3 -97654.2 -0)
(-462.924 -49120.3 -0)
(-1384.4 -49141.9 -0)
(-2298.41 -49187.6 -0)
(-3207.71 -49259.8 -0)
(-4115.26 -49360 -0)
(-5023.87 -49489.8 -0)
(-5936.07 -49650.5 -0)
(-6854.09 -49843.4 -0)
(-7779.93 -50069.7 -0)
(-8715.35 -50330.9 -0)
(-9661.88 -50628.5 -0)
(-10620.9 -50964.3 -0)
(-11593.6 -51340.1 -0)
(-12581 -51758.3 -0)
(-13584.1 -52221.4 -0)
(-14603.5 -52732.2 -0)