/*--------------------------------*- C++ -*----------------------------------*\
  =========                 |
  \\      /  F ield         | OpenFOAM: The Open Source CFD Toolbox
   \\    /   O peration     | Website:  https://openfoam.org
    \\  /    A nd           | Version:  6
     \\/     M anipulation  |
\*---------------------------------------------------------------------------*/
FoamFile
{
    version     2.0;
    format      ascii;
    class       volVectorField;
    location    "10";
    object      force;
}
// * * * * * * * * * * * * * * * * * * * * * * * * * * * * * * * * * * * * * //

dimensions      [0 1 -2 0 0 0 0];

internalField   nonuniform List<vector> 
8800
(
(-8.07934e-06 -0.0607342 -0)
(-2.06515e-05 -0.061035 -0)
(-2.87436e-05 -0.0612053 -0)
(-3.57877e-05 -0.0613397 -0)
(-4.25759e-05 -0.0614635 -0)
(-4.93366e-05 -0.0615975 -0)
(-5.60431e-05 -0.0617472 -0)
(-6.26502e-05 -0.0619141 -0)
(-6.91181e-05 -0.0620982 -0)
(-7.54148e-05 -0.0622989 -0)
(-8.15141e-05 -0.0625153 -0)
(-8.7394e-05 -0.0627465 -0)
(-9.30353e-05 -0.0629915 -0)
(-9.84208e-05 -0.0632494 -0)
(-0.000103535 -0.0635192 -0)
(-0.000108363 -0.0638 -0)
(-0.000112889 -0.0640907 -0)
(-0.0001171 -0.0643906 -0)
(-0.000120977 -0.0646986 -0)
(-0.000124506 -0.0650139 -0)
(-0.000127666 -0.0653355 -0)
(-0.000130438 -0.0656625 -0)
(-0.000132799 -0.065994 -0)
(-0.000134726 -0.0663289 -0)
(-0.000136196 -0.0666661 -0)
(-0.000137183 -0.0670044 -0)
(-0.000137668 -0.0673426 -0)
(-0.000137632 -0.0676792 -0)
(-0.000137063 -0.0680131 -0)
(-0.000135958 -0.0683427 -0)
(-0.000134319 -0.0686669 -0)
(-0.000132157 -0.0689847 -0)
(-0.000129481 -0.0692935 -0)
(-0.000126291 -0.0695938 -0)
(-0.000122556 -0.0698858 -0)
(-0.000118249 -0.0701684 -0)
(-0.000113355 -0.0704404 -0)
(-0.000107868 -0.0707005 -0)
(-0.000101789 -0.0709472 -0)
(-9.51297e-05 -0.0711792 -0)
(-1.78803e-05 -0.0504379 -0)
(-4.86289e-05 -0.05067 -0)
(-7.17808e-05 -0.0508409 -0)
(-9.1491e-05 -0.0509727 -0)
(-0.000109876 -0.0510926 -0)
(-0.000127751 -0.051217 -0)
(-0.000145321 -0.0513534 -0)
(-0.000162582 -0.051504 -0)
(-0.000179478 -0.0516695 -0)
(-0.000195944 -0.0518495 -0)
(-0.000211917 -0.0520434 -0)
(-0.000227342 -0.0522503 -0)
(-0.000242168 -0.0524694 -0)
(-0.000256346 -0.0526996 -0)
(-0.000269835 -0.0529402 -0)
(-0.000282591 -0.0531902 -0)
(-0.000294572 -0.0534487 -0)
(-0.000305736 -0.0537149 -0)
(-0.000316037 -0.0539879 -0)
(-0.000325428 -0.0542669 -0)
(-0.000333858 -0.0545511 -0)
(-0.000341271 -0.0548396 -0)
(-0.000347608 -0.0551316 -0)
(-0.000352808 -0.0554262 -0)
(-0.000356805 -0.0557223 -0)
(-0.000359538 -0.0560191 -0)
(-0.000360948 -0.0563153 -0)
(-0.000360989 -0.0566098 -0)
(-0.000359627 -0.0569013 -0)
(-0.000356842 -0.0571885 -0)
(-0.00035264 -0.0574695 -0)
(-0.00034705 -0.0577398 -0)
(-0.000340108 -0.0580008 -0)
(-0.000331775 -0.058255 -0)
(-0.000321972 -0.0585017 -0)
(-0.000310649 -0.0587402 -0)
(-0.000297775 -0.0589694 -0)
(-0.000283339 -0.0591883 -0)
(-0.000267351 -0.0593959 -0)
(-0.000249841 -0.0595909 -0)
(-2.47827e-05 -0.0416961 -0)
(-6.80295e-05 -0.0419965 -0)
(-0.000101474 -0.0421701 -0)
(-0.00013038 -0.0422947 -0)
(-0.0001573 -0.0424034 -0)
(-0.000183334 -0.0425152 -0)
(-0.000208827 -0.0426372 -0)
(-0.000233834 -0.0427717 -0)
(-0.00025831 -0.0429193 -0)
(-0.000282179 -0.0430797 -0)
(-0.000305361 -0.0432521 -0)
(-0.000327778 -0.0434359 -0)
(-0.000349356 -0.0436301 -0)
(-0.000370024 -0.0438339 -0)
(-0.000389716 -0.0440463 -0)
(-0.000408366 -0.0442664 -0)
(-0.000425909 -0.0444935 -0)
(-0.000442279 -0.0447267 -0)
(-0.000457407 -0.0449652 -0)
(-0.000471218 -0.0452081 -0)
(-0.000483637 -0.0454548 -0)
(-0.000494578 -0.0457045 -0)
(-0.000503955 -0.0459565 -0)
(-0.000511675 -0.04621 -0)
(-0.000517644 -0.0464642 -0)
(-0.000521767 -0.0467182 -0)
(-0.00052396 -0.0469711 -0)
(-0.00052415 -0.0472217 -0)
(-0.00052228 -0.0474686 -0)
(-0.00051832 -0.0477096 -0)
(-0.000512284 -0.0479386 -0)
(-0.000504261 -0.0481556 -0)
(-0.000494271 -0.0483685 -0)
(-0.000482178 -0.0485752 -0)
(-0.000467913 -0.0487755 -0)
(-0.00045142 -0.0489688 -0)
(-0.000432665 -0.0491546 -0)
(-0.00041164 -0.049332 -0)
(-0.000388362 -0.0495001 -0)
(-0.000362881 -0.049658 -0)
(-2.95381e-05 -0.0343562 -0)
(-8.12472e-05 -0.0347619 -0)
(-0.000121266 -0.0349589 -0)
(-0.000156128 -0.0350788 -0)
(-0.000188741 -0.0351759 -0)
(-0.000220298 -0.0352739 -0)
(-0.000251189 -0.0353808 -0)
(-0.000281491 -0.0354991 -0)
(-0.000311165 -0.0356291 -0)
(-0.000340131 -0.0357702 -0)
(-0.000368295 -0.0359218 -0)
(-0.000395566 -0.0360831 -0)
(-0.000421852 -0.036253 -0)
(-0.000447065 -0.0364308 -0)
(-0.000471119 -0.0366155 -0)
(-0.00049393 -0.0368062 -0)
(-0.000515413 -0.037002 -0)
(-0.000535481 -0.0372021 -0)
(-0.000554045 -0.0374058 -0)
(-0.000571011 -0.0376123 -0)
(-0.00058628 -0.037821 -0)
(-0.000599747 -0.0380312 -0)
(-0.000611303 -0.0382424 -0)
(-0.000620832 -0.0384539 -0)
(-0.000628218 -0.0386651 -0)
(-0.000633345 -0.0388752 -0)
(-0.000636103 -0.0390834 -0)
(-0.0006364 -0.0392883 -0)
(-0.000634165 -0.0394876 -0)
(-0.000629362 -0.0396765 -0)
(-0.000622005 -0.0398458 -0)
(-0.00061239 -0.0400157 -0)
(-0.000600259 -0.040181 -0)
(-0.000585524 -0.0403412 -0)
(-0.00056812 -0.0404963 -0)
(-0.000547999 -0.0406461 -0)
(-0.00052513 -0.0407902 -0)
(-0.00049951 -0.0409279 -0)
(-0.000471169 -0.0410585 -0)
(-0.000440168 -0.0411812 -0)
(-3.23923e-05 -0.0282433 -0)
(-8.93725e-05 -0.0287541 -0)
(-0.000133338 -0.028983 -0)
(-0.000171702 -0.0291048 -0)
(-0.0002077 -0.0291934 -0)
(-0.000242598 -0.0292788 -0)
(-0.000276805 -0.0293712 -0)
(-0.000310395 -0.0294735 -0)
(-0.000343325 -0.0295861 -0)
(-0.000375506 -0.0297083 -0)
(-0.000406836 -0.0298393 -0)
(-0.00043721 -0.0299783 -0)
(-0.000466522 -0.0301243 -0)
(-0.000494671 -0.0302762 -0)
(-0.000521554 -0.0304332 -0)
(-0.000547071 -0.0305943 -0)
(-0.000571121 -0.0307588 -0)
(-0.0005936 -0.0309257 -0)
(-0.000614402 -0.0310945 -0)
(-0.000633417 -0.0312644 -0)
(-0.00065053 -0.0314349 -0)
(-0.000665619 -0.0316055 -0)
(-0.000678561 -0.0317757 -0)
(-0.000689224 -0.0319451 -0)
(-0.000697478 -0.0321132 -0)
(-0.00070319 -0.0322792 -0)
(-0.000706231 -0.0324421 -0)
(-0.000706487 -0.0325996 -0)
(-0.000703861 -0.0327471 -0)
(-0.000698297 -0.0328739 -0)
(-0.000690264 -0.0330006 -0)
(-0.000679532 -0.0331251 -0)
(-0.000665953 -0.0332459 -0)
(-0.000649454 -0.0333631 -0)
(-0.000629981 -0.0334769 -0)
(-0.000607493 -0.0335871 -0)
(-0.00058197 -0.0336934 -0)
(-0.000553417 -0.0337955 -0)
(-0.000521871 -0.0338926 -0)
(-0.000487406 -0.0339841 -0)
(-3.36394e-05 -0.0231715 -0)
(-9.33435e-05 -0.0237839 -0)
(-0.000139344 -0.0240468 -0)
(-0.000179442 -0.024174 -0)
(-0.000217103 -0.0242567 -0)
(-0.000253668 -0.0243312 -0)
(-0.000289562 -0.0244101 -0)
(-0.00032486 -0.024497 -0)
(-0.000359511 -0.0245925 -0)
(-0.000393415 -0.024696 -0)
(-0.000426462 -0.0248068 -0)
(-0.000458535 -0.0249237 -0)
(-0.000489517 -0.0250458 -0)
(-0.000519292 -0.0251721 -0)
(-0.000547748 -0.0253016 -0)
(-0.000574768 -0.0254335 -0)
(-0.000600238 -0.0255669 -0)
(-0.000624042 -0.025701 -0)
(-0.000646059 -0.0258353 -0)
(-0.000666168 -0.0259693 -0)
(-0.000684242 -0.0261023 -0)
(-0.00070015 -0.0262342 -0)
(-0.000713758 -0.0263645 -0)
(-0.000724928 -0.0264929 -0)
(-0.00073352 -0.0266191 -0)
(-0.000739389 -0.0267421 -0)
(-0.000742391 -0.0268602 -0)
(-0.000742388 -0.0269699 -0)
(-0.000739263 -0.0270634 -0)
(-0.000733233 -0.027144 -0)
(-0.000724674 -0.0272297 -0)
(-0.000713193 -0.0273137 -0)
(-0.000698693 -0.0273955 -0)
(-0.000681117 -0.0274752 -0)
(-0.000660428 -0.0275531 -0)
(-0.000636597 -0.0276293 -0)
(-0.000609613 -0.0277036 -0)
(-0.00057949 -0.0277755 -0)
(-0.00054627 -0.0278446 -0)
(-0.000510034 -0.0279101 -0)
(-3.35689e-05 -0.0189736 -0)
(-9.39894e-05 -0.0196795 -0)
(-0.000140644 -0.0199756 -0)
(-0.000181236 -0.0201098 -0)
(-0.000219336 -0.0201883 -0)
(-0.000256346 -0.0202533 -0)
(-0.000292716 -0.0203196 -0)
(-0.000328527 -0.0203918 -0)
(-0.000363723 -0.0204708 -0)
(-0.000398198 -0.0205561 -0)
(-0.000431834 -0.020647 -0)
(-0.000464502 -0.0207423 -0)
(-0.000496078 -0.0208411 -0)
(-0.000526435 -0.0209424 -0)
(-0.000555448 -0.0210451 -0)
(-0.000582991 -0.0211485 -0)
(-0.000608938 -0.0212519 -0)
(-0.000633162 -0.0213545 -0)
(-0.000655536 -0.0214558 -0)
(-0.000675929 -0.0215554 -0)
(-0.000694207 -0.0216531 -0)
(-0.000710236 -0.0217484 -0)
(-0.000723878 -0.0218412 -0)
(-0.000734992 -0.0219313 -0)
(-0.000743434 -0.0220182 -0)
(-0.000749051 -0.0221007 -0)
(-0.000751687 -0.0221764 -0)
(-0.000751179 -0.0222404 -0)
(-0.000747373 -0.0222835 -0)
(-0.000741161 -0.0223325 -0)
(-0.00073218 -0.0223833 -0)
(-0.000720215 -0.0224334 -0)
(-0.000705197 -0.0224828 -0)
(-0.00068709 -0.0225317 -0)
(-0.000665868 -0.0225804 -0)
(-0.000641519 -0.0226292 -0)
(-0.000614042 -0.0226779 -0)
(-0.000583454 -0.0227262 -0)
(-0.000549801 -0.0227733 -0)
(-0.000513161 -0.0228188 -0)
(-3.24556e-05 -0.0155038 -0)
(-9.20369e-05 -0.0162898 -0)
(-0.000138369 -0.0166164 -0)
(-0.000178611 -0.0167581 -0)
(-0.000216309 -0.0168336 -0)
(-0.000252908 -0.0168902 -0)
(-0.000288885 -0.016945 -0)
(-0.000324334 -0.0170034 -0)
(-0.000359202 -0.0170667 -0)
(-0.000393382 -0.0171347 -0)
(-0.000426747 -0.0172065 -0)
(-0.000459163 -0.0172811 -0)
(-0.000490497 -0.0173576 -0)
(-0.000520614 -0.017435 -0)
(-0.000549379 -0.0175124 -0)
(-0.000576659 -0.017589 -0)
(-0.000602321 -0.0176642 -0)
(-0.000626232 -0.0177374 -0)
(-0.000648259 -0.0178083 -0)
(-0.000668267 -0.0178765 -0)
(-0.000686123 -0.0179417 -0)
(-0.00070169 -0.0180039 -0)
(-0.000714834 -0.018063 -0)
(-0.000725413 -0.0181186 -0)
(-0.000733283 -0.0181701 -0)
(-0.000738288 -0.018216 -0)
(-0.000740248 -0.0182532 -0)
(-0.000738965 -0.018275 -0)
(-0.000734748 -0.0182869 -0)
(-0.000728243 -0.0183081 -0)
(-0.000718944 -0.018331 -0)
(-0.000706712 -0.0183544 -0)
(-0.000691507 -0.0183784 -0)
(-0.00067331 -0.0184036 -0)
(-0.000652112 -0.0184302 -0)
(-0.000627912 -0.0184584 -0)
(-0.000600718 -0.0184882 -0)
(-0.00057055 -0.0185191 -0)
(-0.000537449 -0.0185507 -0)
(-0.000501486 -0.0185821 -0)
(-3.05626e-05 -0.0126374 -0)
(-8.81272e-05 -0.0134861 -0)
(-0.000133451 -0.013839 -0)
(-0.000172778 -0.0139882 -0)
(-0.000209517 -0.0140618 -0)
(-0.000245122 -0.0141112 -0)
(-0.000280103 -0.0141555 -0)
(-0.000314571 -0.0142011 -0)
(-0.000348482 -0.0142499 -0)
(-0.000381729 -0.0143016 -0)
(-0.000414184 -0.0143555 -0)
(-0.000445708 -0.0144109 -0)
(-0.000476163 -0.0144667 -0)
(-0.000505407 -0.014522 -0)
(-0.000533301 -0.0145761 -0)
(-0.000559706 -0.0146283 -0)
(-0.000584485 -0.014678 -0)
(-0.000607503 -0.0147249 -0)
(-0.000628625 -0.0147686 -0)
(-0.00064772 -0.014809 -0)
(-0.000664655 -0.0148459 -0)
(-0.000679301 -0.0148793 -0)
(-0.000691525 -0.0149091 -0)
(-0.000701192 -0.014935 -0)
(-0.000708159 -0.0149562 -0)
(-0.000712264 -0.0149709 -0)
(-0.000713309 -0.0149752 -0)
(-0.000711042 -0.0149618 -0)
(-0.000706662 -0.0149563 -0)
(-0.000699855 -0.0149562 -0)
(-0.000690345 -0.0149583 -0)
(-0.000678047 -0.014962 -0)
(-0.000662943 -0.0149678 -0)
(-0.000645029 -0.014976 -0)
(-0.000624309 -0.0149871 -0)
(-0.000600797 -0.0150011 -0)
(-0.000574503 -0.0150182 -0)
(-0.000545448 -0.0150379 -0)
(-0.000513661 -0.0150596 -0)
(-0.000479201 -0.0150824 -0)
(-2.81311e-05 -0.0102688 -0)
(-8.28151e-05 -0.011161 -0)
(-0.000126644 -0.0115353 -0)
(-0.000164686 -0.0116916 -0)
(-0.000200103 -0.011764 -0)
(-0.000234332 -0.0118073 -0)
(-0.00026791 -0.0118424 -0)
(-0.00030097 -0.0118766 -0)
(-0.00033348 -0.0119121 -0)
(-0.000365338 -0.0119489 -0)
(-0.000396419 -0.0119867 -0)
(-0.000426581 -0.0120246 -0)
(-0.000455683 -0.0120617 -0)
(-0.000483581 -0.0120973 -0)
(-0.000510133 -0.0121307 -0)
(-0.000535199 -0.0121614 -0)
(-0.000558642 -0.0121889 -0)
(-0.000580327 -0.012213 -0)
(-0.000600126 -0.0122335 -0)
(-0.00061791 -0.0122503 -0)
(-0.000633556 -0.0122634 -0)
(-0.000646941 -0.0122729 -0)
(-0.000657942 -0.0122786 -0)
(-0.000666431 -0.0122801 -0)
(-0.000672269 -0.0122767 -0)
(-0.000675299 -0.0122662 -0)
(-0.000675349 -0.0122457 -0)
(-0.0006723 -0.0122115 -0)
(-0.000667609 -0.0121917 -0)
(-0.000660565 -0.0121766 -0)
(-0.000650984 -0.0121645 -0)
(-0.000638822 -0.0121551 -0)
(-0.000624081 -0.0121489 -0)
(-0.000606772 -0.0121464 -0)
(-0.000586905 -0.0121477 -0)
(-0.000564505 -0.0121532 -0)
(-0.000539587 -0.0121628 -0)
(-0.000512167 -0.0121763 -0)
(-0.000482259 -0.0121928 -0)
(-0.000449903 -0.0122117 -0)
(-2.53703e-05 -0.00831012 -0)
(-7.65646e-05 -0.00922621 -0)
(-0.000118549 -0.00961668 -0)
(-0.000155059 -0.00977947 -0)
(-0.000188923 -0.00985147 -0)
(-0.000221533 -0.00988987 -0)
(-0.000253441 -0.00991702 -0)
(-0.000284807 -0.00994115 -0)
(-0.000315613 -0.00996488 -0)
(-0.000345766 -0.00998865 -0)
(-0.000375143 -0.0100121 -0)
(-0.000403607 -0.0100346 -0)
(-0.000431014 -0.0100554 -0)
(-0.000457224 -0.0100739 -0)
(-0.000482093 -0.0100896 -0)
(-0.000505484 -0.010102 -0)
(-0.000527264 -0.0101108 -0)
(-0.000547304 -0.010116 -0)
(-0.000565482 -0.0101173 -0)
(-0.000581681 -0.010115 -0)
(-0.000595788 -0.010109 -0)
(-0.000607694 -0.0100995 -0)
(-0.000617285 -0.0100864 -0)
(-0.000624438 -0.0100691 -0)
(-0.000629014 -0.0100467 -0)
(-0.00063083 -0.0100167 -0)
(-0.000629565 -0.00997352 -0)
(-0.000626324 -0.00993458 -0)
(-0.000621349 -0.00990574 -0)
(-0.000614183 -0.00988165 -0)
(-0.000604701 -0.00986112 -0)
(-0.000592886 -0.00984426 -0)
(-0.000578754 -0.00983152 -0)
(-0.000562325 -0.00982323 -0)
(-0.000543609 -0.00981947 -0)
(-0.000522645 -0.0098207 -0)
(-0.000499447 -0.00982692 -0)
(-0.000474029 -0.00983794 -0)
(-0.000446387 -0.00985297 -0)
(-0.000416539 -0.00987122 -0)
(-2.24514e-05 -0.00668876 -0)
(-6.97504e-05 -0.00761022 -0)
(-0.000109629 -0.00801132 -0)
(-0.000144439 -0.00817978 -0)
(-0.000176605 -0.00825208 -0)
(-0.000207444 -0.00828676 -0)
(-0.000237516 -0.00830737 -0)
(-0.000267003 -0.00832295 -0)
(-0.000295904 -0.00833661 -0)
(-0.000324138 -0.00834911 -0)
(-0.000351588 -0.00836028 -0)
(-0.000378121 -0.00836967 -0)
(-0.0004036 -0.00837672 -0)
(-0.000427884 -0.00838093 -0)
(-0.000450836 -0.00838191 -0)
(-0.000472324 -0.00837935 -0)
(-0.000492223 -0.00837311 -0)
(-0.000510413 -0.00836314 -0)
(-0.000526785 -0.00834951 -0)
(-0.000541233 -0.00833236 -0)
(-0.000553661 -0.00831188 -0)
(-0.000563974 -0.00828818 -0)
(-0.000572072 -0.0082612 -0)
(-0.00057784 -0.00823044 -0)
(-0.000581139 -0.00819473 -0)
(-0.000581794 -0.00815187 -0)
(-0.000579521 -0.00809736 -0)
(-0.000576049 -0.0080559 -0)
(-0.000570915 -0.00802281 -0)
(-0.0005638 -0.00799466 -0)
(-0.000554616 -0.00797063 -0)
(-0.000543363 -0.00795089 -0)
(-0.000530065 -0.00793581 -0)
(-0.000514744 -0.00792565 -0)
(-0.000497402 -0.00792027 -0)
(-0.000478094 -0.00792028 -0)
(-0.000456837 -0.00792576 -0)
(-0.000433643 -0.00793672 -0)
(-0.000408494 -0.00795242 -0)
(-0.000381384 -0.00797213 -0)
(-1.95069e-05 -0.00534525 -0)
(-6.26642e-05 -0.00625521 -0)
(-0.000100236 -0.00666153 -0)
(-0.000133222 -0.00683469 -0)
(-0.000163599 -0.0069079 -0)
(-0.000192576 -0.00694002 -0)
(-0.000220712 -0.00695549 -0)
(-0.000248206 -0.00696408 -0)
(-0.000275075 -0.00696939 -0)
(-0.000301253 -0.0069725 -0)
(-0.000326632 -0.0069735 -0)
(-0.000351086 -0.00697209 -0)
(-0.000374483 -0.00696789 -0)
(-0.00039669 -0.00696055 -0)
(-0.000417578 -0.00694981 -0)
(-0.000437025 -0.00693551 -0)
(-0.000454916 -0.00691761 -0)
(-0.000471144 -0.00689618 -0)
(-0.000485614 -0.00687139 -0)
(-0.00049824 -0.00684347 -0)
(-0.000508941 -0.00681268 -0)
(-0.00051764 -0.00677919 -0)
(-0.000524255 -0.00674297 -0)
(-0.000528682 -0.00670356 -0)
(-0.00053078 -0.0066597 -0)
(-0.0005304 -0.00660962 -0)
(-0.000527452 -0.00655192 -0)
(-0.000523812 -0.0065106 -0)
(-0.000518704 -0.00647728 -0)
(-0.000511851 -0.00644912 -0)
(-0.000503183 -0.00642545 -0)
(-0.000492703 -0.00640634 -0)
(-0.000480431 -0.00639201 -0)
(-0.00046639 -0.00638262 -0)
(-0.000450565 -0.00637778 -0)
(-0.000433031 -0.0063783 -0)
(-0.000413811 -0.00638439 -0)
(-0.000392924 -0.00639627 -0)
(-0.000370347 -0.00641349 -0)
(-0.000346057 -0.00643551 -0)
(-1.66335e-05 -0.00423098 -0)
(-5.5526e-05 -0.00511481 -0)
(-9.06277e-05 -0.00552106 -0)
(-0.000121693 -0.00569782 -0)
(-0.000150219 -0.00577244 -0)
(-0.000177283 -0.00580311 -0)
(-0.000203426 -0.0058148 -0)
(-0.000228862 -0.00581793 -0)
(-0.000253628 -0.00581657 -0)
(-0.00027767 -0.00581216 -0)
(-0.000300892 -0.005805 -0)
(-0.000323178 -0.00579501 -0)
(-0.000344406 -0.00578198 -0)
(-0.000364452 -0.00576569 -0)
(-0.0003832 -0.00574602 -0)
(-0.000400539 -0.00572293 -0)
(-0.000416367 -0.00569651 -0)
(-0.000430596 -0.00566692 -0)
(-0.000443147 -0.00563441 -0)
(-0.000453953 -0.0055993 -0)
(-0.000462955 -0.0055619 -0)
(-0.000470095 -0.00552245 -0)
(-0.00047531 -0.005481 -0)
(-0.000478512 -0.00543713 -0)
(-0.000479521 -0.00538915 -0)
(-0.000477936 -0.00533247 -0)
(-0.000475033 -0.00528139 -0)
(-0.0004714 -0.00524306 -0)
(-0.00046654 -0.00521269 -0)
(-0.000460183 -0.00518765 -0)
(-0.000452253 -0.00516718 -0)
(-0.000442738 -0.00515118 -0)
(-0.000431641 -0.00513954 -0)
(-0.000418975 -0.0051323 -0)
(-0.000404724 -0.00512901 -0)
(-0.000388979 -0.0051306 -0)
(-0.000371776 -0.00513746 -0)
(-0.000353126 -0.00514972 -0)
(-0.000333069 -0.00516809 -0)
(-0.000311567 -0.00519228 -0)
(-1.38977e-05 -0.00330638 -0)
(-4.84942e-05 -0.00415169 -0)
(-8.09924e-05 -0.00455294 -0)
(-0.000110051 -0.00473202 -0)
(-0.000136681 -0.00480838 -0)
(-0.000161802 -0.00483861 -0)
(-0.000185925 -0.00484781 -0)
(-0.000209274 -0.00484695 -0)
(-0.000231899 -0.00484054 -0)
(-0.000253766 -0.00483034 -0)
(-0.000274789 -0.00481694 -0)
(-0.000294867 -0.00480043 -0)
(-0.000313889 -0.00478077 -0)
(-0.000331744 -0.00475789 -0)
(-0.000348328 -0.00473179 -0)
(-0.000363547 -0.00470256 -0)
(-0.000377317 -0.00467037 -0)
(-0.000389567 -0.00463549 -0)
(-0.00040024 -0.00459823 -0)
(-0.000409289 -0.00455899 -0)
(-0.000416676 -0.00451812 -0)
(-0.000422367 -0.00447592 -0)
(-0.000426322 -0.00443252 -0)
(-0.000428477 -0.00438766 -0)
(-0.000428624 -0.00433946 -0)
(-0.000426293 -0.00428303 -0)
(-0.000423513 -0.0042389 -0)
(-0.000420113 -0.00420582 -0)
(-0.000415739 -0.00418068 -0)
(-0.000410112 -0.00416092 -0)
(-0.000403126 -0.00414556 -0)
(-0.000394738 -0.00413417 -0)
(-0.000384889 -0.004126 -0)
(-0.000373534 -0.00412036 -0)
(-0.000360846 -0.00411884 -0)
(-0.000346828 -0.00412134 -0)
(-0.000331535 -0.00412841 -0)
(-0.000314995 -0.00414039 -0)
(-0.000297303 -0.00415879 -0)
(-0.000278433 -0.00418381 -0)
(-1.13427e-05 -0.00253948 -0)
(-4.1678e-05 -0.00333575 -0)
(-7.14578e-05 -0.00372733 -0)
(-9.84334e-05 -0.00390754 -0)
(-0.000123127 -0.0039858 -0)
(-0.000146289 -0.00401645 -0)
(-0.000168382 -0.00402435 -0)
(-0.000189634 -0.00402084 -0)
(-0.000210112 -0.00401086 -0)
(-0.000229792 -0.00399649 -0)
(-0.000248609 -0.00397857 -0)
(-0.000266473 -0.00395739 -0)
(-0.000283288 -0.00393306 -0)
(-0.000298959 -0.00390566 -0)
(-0.000313399 -0.00387532 -0)
(-0.00032653 -0.00384221 -0)
(-0.000338288 -0.0038066 -0)
(-0.000348624 -0.00376883 -0)
(-0.000357502 -0.0037293 -0)
(-0.000364898 -0.00368843 -0)
(-0.000370798 -0.00364664 -0)
(-0.00037519 -0.00360427 -0)
(-0.000378058 -0.00356153 -0)
(-0.00037938 -0.00351846 -0)
(-0.000378915 -0.00347293 -0)
(-0.000376296 -0.00342153 -0)
(-0.000373772 -0.00338483 -0)
(-0.000370839 -0.00335854 -0)
(-0.000367076 -0.00333912 -0)
(-0.000362331 -0.00332537 -0)
(-0.000356478 -0.00331625 -0)
(-0.000349357 -0.00331035 -0)
(-0.000340836 -0.00330629 -0)
(-0.000330827 -0.00330294 -0)
(-0.000319583 -0.00330245 -0)
(-0.000307097 -0.00330454 -0)
(-0.000293473 -0.00331012 -0)
(-0.000278804 -0.00332021 -0)
(-0.000263215 -0.00333661 -0)
(-0.000246718 -0.00336022 -0)
(-8.98793e-06 -0.0019028 -0)
(-3.51657e-05 -0.00264382 -0)
(-6.21191e-05 -0.00302074 -0)
(-8.69222e-05 -0.00320018 -0)
(-0.000109647 -0.00328056 -0)
(-0.000130839 -0.00331237 -0)
(-0.000150905 -0.00331999 -0)
(-0.000170067 -0.00331507 -0)
(-0.000188405 -0.00330285 -0)
(-0.000205912 -0.00328575 -0)
(-0.000222536 -0.00326483 -0)
(-0.000238207 -0.00324059 -0)
(-0.000252842 -0.00321329 -0)
(-0.000266366 -0.00318316 -0)
(-0.000278708 -0.0031504 -0)
(-0.000289813 -0.0031153 -0)
(-0.000299637 -0.00307821 -0)
(-0.000308153 -0.00303952 -0)
(-0.000315348 -0.00299969 -0)
(-0.000321224 -0.00295919 -0)
(-0.00032579 -0.00291848 -0)
(-0.000329058 -0.00287795 -0)
(-0.000331031 -0.00283784 -0)
(-0.000331589 -0.00279724 -0)
(-0.000330299 -0.00275257 -0)
(-0.000328208 -0.00271252 -0)
(-0.000326161 -0.0026841 -0)
(-0.000323927 -0.00266555 -0)
(-0.000321056 -0.00265337 -0)
(-0.000317423 -0.00264672 -0)
(-0.000312851 -0.00264431 -0)
(-0.000307077 -0.002644 -0)
(-0.000299902 -0.00264397 -0)
(-0.000291208 -0.00264288 -0)
(-0.000281174 -0.00264186 -0)
(-0.000269896 -0.00264136 -0)
(-0.00025756 -0.00264281 -0)
(-0.000244362 -0.00264805 -0)
(-0.000230497 -0.00265947 -0)
(-0.00021604 -0.00267876 -0)
(-6.8383e-06 -0.0013741 -0)
(-2.89969e-05 -0.00205572 -0)
(-5.30496e-05 -0.00241448 -0)
(-7.55929e-05 -0.00259126 -0)
(-9.62971e-05 -0.00267318 -0)
(-0.000115506 -0.00270661 -0)
(-0.000133554 -0.00271494 -0)
(-0.000150647 -0.00270971 -0)
(-0.000166868 -0.00269647 -0)
(-0.000182228 -0.00267789 -0)
(-0.000196691 -0.00265528 -0)
(-0.000210202 -0.00262932 -0)
(-0.000222702 -0.00260046 -0)
(-0.000234127 -0.00256898 -0)
(-0.000244432 -0.00253522 -0)
(-0.000253579 -0.00249956 -0)
(-0.000261549 -0.00246238 -0)
(-0.000268338 -0.00242417 -0)
(-0.000273958 -0.0023854 -0)
(-0.000278436 -0.00234661 -0)
(-0.000281804 -0.00230827 -0)
(-0.000284099 -0.00227081 -0)
(-0.000285339 -0.00223446 -0)
(-0.000285388 -0.0021982 -0)
(-0.000283868 -0.0021591 -0)
(-0.000282343 -0.00212905 -0)
(-0.000280989 -0.00210931 -0)
(-0.000279676 -0.00209898 -0)
(-0.000277996 -0.00209521 -0)
(-0.000275708 -0.00209641 -0)
(-0.000272527 -0.00210066 -0)
(-0.000268109 -0.00210541 -0)
(-0.000262168 -0.00210831 -0)
(-0.000254546 -0.00210768 -0)
(-0.000245375 -0.00210393 -0)
(-0.000234857 -0.00209804 -0)
(-0.000223305 -0.0020921 -0)
(-0.000211063 -0.00208893 -0)
(-0.000198447 -0.00209175 -0)
(-0.000185626 -0.00210325 -0)
(-4.88849e-06 -0.000935051 -0)
(-2.31908e-05 -0.00155517 -0)
(-4.42891e-05 -0.00189295 -0)
(-6.44888e-05 -0.00206531 -0)
(-8.31176e-05 -0.00214812 -0)
(-0.000100323 -0.00218333 -0)
(-0.000116357 -0.00219297 -0)
(-0.000131397 -0.00218829 -0)
(-0.000145529 -0.00217499 -0)
(-0.000158775 -0.00215597 -0)
(-0.000171115 -0.00213276 -0)
(-0.000182513 -0.00210621 -0)
(-0.000192928 -0.0020769 -0)
(-0.000202316 -0.00204522 -0)
(-0.000210652 -0.00201161 -0)
(-0.000217922 -0.00197651 -0)
(-0.000224128 -0.00194036 -0)
(-0.000229291 -0.00190368 -0)
(-0.000233449 -0.001867 -0)
(-0.000236652 -0.00183087 -0)
(-0.000238958 -0.0017958 -0)
(-0.000240428 -0.00176225 -0)
(-0.000241103 -0.00173051 -0)
(-0.000240809 -0.00169926 -0)
(-0.000239646 -0.00166918 -0)
(-0.000238848 -0.00164878 -0)
(-0.000238418 -0.00163798 -0)
(-0.000238243 -0.00163609 -0)
(-0.000237933 -0.00164066 -0)
(-0.000237118 -0.00164944 -0)
(-0.000235374 -0.00165978 -0)
(-0.000232236 -0.0016685 -0)
(-0.000227312 -0.00167263 -0)
(-0.000220394 -0.00167006 -0)
(-0.000211595 -0.00166071 -0)
(-0.00020124 -0.00164597 -0)
(-0.000189825 -0.00162874 -0)
(-0.000177899 -0.00161296 -0)
(-0.000165956 -0.00160298 -0)
(-0.000154303 -0.0016026 -0)
(-3.1267e-06 -0.000570547 -0)
(-1.77509e-05 -0.0011288 -0)
(-3.58627e-05 -0.00144349 -0)
(-5.36406e-05 -0.00160977 -0)
(-7.01353e-05 -0.0016927 -0)
(-8.53104e-05 -0.00172963 -0)
(-9.93274e-05 -0.00174093 -0)
(-0.00011233 -0.00173742 -0)
(-0.000124399 -0.00172482 -0)
(-0.000135565 -0.0017062 -0)
(-0.000145825 -0.00168326 -0)
(-0.000155158 -0.001657 -0)
(-0.000163543 -0.00162814 -0)
(-0.000170959 -0.00159716 -0)
(-0.000177399 -0.00156459 -0)
(-0.000182874 -0.0015309 -0)
(-0.00018741 -0.00149661 -0)
(-0.000191052 -0.00146227 -0)
(-0.000193862 -0.00142843 -0)
(-0.000195916 -0.00139567 -0)
(-0.000197299 -0.00136453 -0)
(-0.000198095 -0.0013355 -0)
(-0.000198373 -0.00130893 -0)
(-0.000197755 -0.00128221 -0)
(-0.000197457 -0.00126317 -0)
(-0.000197604 -0.00125236 -0)
(-0.000198311 -0.00125048 -0)
(-0.000199465 -0.00125692 -0)
(-0.00020066 -0.0012694 -0)
(-0.000201386 -0.00128507 -0)
(-0.000201046 -0.00130043 -0)
(-0.000199006 -0.0013115 -0)
(-0.000194745 -0.00131456 -0)
(-0.000187995 -0.001307 -0)
(-0.000178892 -0.00128841 -0)
(-0.00016792 -0.00126061 -0)
(-0.000155817 -0.00122745 -0)
(-0.000143414 -0.00119415 -0)
(-0.000131454 -0.00116646 -0)
(-0.00012043 -0.00114948 -0)
(-1.53732e-06 -0.000268056 -0)
(-1.26695e-05 -0.000765533 -0)
(-2.77835e-05 -0.0010557 -0)
(-4.30704e-05 -0.00121442 -0)
(-5.73703e-05 -0.00129659 -0)
(-7.04812e-05 -0.00133498 -0)
(-8.24728e-05 -0.00134809 -0)
(-9.34482e-05 -0.00134616 -0)
(-0.000103479 -0.00133483 -0)
(-0.0001126 -0.00131726 -0)
(-0.000120821 -0.00129527 -0)
(-0.000128139 -0.00127001 -0)
(-0.00013455 -0.00124228 -0)
(-0.000140056 -0.00121268 -0)
(-0.000144672 -0.00118178 -0)
(-0.00014843 -0.00115012 -0)
(-0.000151381 -0.00111827 -0)
(-0.000153595 -0.00108679 -0)
(-0.000155158 -0.00105626 -0)
(-0.000156173 -0.00102728 -0)
(-0.000156749 -0.00100041 -0)
(-0.000156993 -0.000976149 -0)
(-0.000157003 -0.000954906 -0)
(-0.000156633 -0.000935635 -0)
(-0.000157128 -0.000925593 -0)
(-0.000158367 -0.000923839 -0)
(-0.000160389 -0.000930553 -0)
(-0.00016303 -0.000944955 -0)
(-0.00016582 -0.000964652 -0)
(-0.000168084 -0.00098614 -0)
(-0.000169008 -0.00100499 -0)
(-0.000167744 -0.00101623 -0)
(-0.000163608 -0.00101524 -0)
(-0.000156276 -0.000998853 -0)
(-0.000145946 -0.000966495 -0)
(-0.000133324 -0.000920488 -0)
(-0.000119478 -0.000865799 -0)
(-0.000105608 -0.000809178 -0)
(-9.27951e-05 -0.000757976 -0)
(-8.17797e-05 -0.000718833 -0)
(-1.03044e-07 -1.71896e-05 -0)
(-7.93163e-06 -0.000456125 -0)
(-2.00567e-05 -0.000720942 -0)
(-3.27945e-05 -0.00087084 -0)
(-4.48397e-05 -0.000951359 -0)
(-5.58479e-05 -0.000990778 -0)
(-6.57992e-05 -0.00100568 -0)
(-7.47526e-05 -0.00100557 -0)
(-8.27643e-05 -0.000995896 -0)
(-8.98707e-05 -0.000979831 -0)
(-9.60919e-05 -0.0009593 -0)
(-0.00010144 -0.000935542 -0)
(-0.00010593 -0.000909444 -0)
(-0.000109583 -0.000881696 -0)
(-0.000112437 -0.000852918 -0)
(-0.000114546 -0.000823697 -0)
(-0.000115984 -0.000794621 -0)
(-0.000116845 -0.000766283 -0)
(-0.000117241 -0.000739286 -0)
(-0.000117299 -0.000714231 -0)
(-0.000117151 -0.000691691 -0)
(-0.00011693 -0.000672178 -0)
(-0.000116515 -0.000654774 -0)
(-0.000116916 -0.000644908 -0)
(-0.000118339 -0.000643372 -0)
(-0.000120798 -0.000650049 -0)
(-0.000124273 -0.000664825 -0)
(-0.000128514 -0.000686577 -0)
(-0.000132932 -0.000712547 -0)
(-0.000136641 -0.000738462 -0)
(-0.000138555 -0.000758797 -0)
(-0.000137558 -0.000767395 -0)
(-0.000132764 -0.000758595 -0)
(-0.000123798 -0.000728614 -0)
(-0.000110982 -0.000676819 -0)
(-9.53334e-05 -0.000606237 -0)
(-7.83679e-05 -0.000523193 -0)
(-6.17752e-05 -0.000436211 -0)
(-4.70759e-05 -0.000354525 -0)
(-3.53372e-05 -0.000286516 -0)
(1.1937e-06 0.000190679 0)
(-3.51821e-06 -0.000192814 -0)
(-1.26821e-05 -0.000432035 -0)
(-2.2826e-05 -0.000572059 -0)
(-3.25603e-05 -0.000650029 -0)
(-4.14238e-05 -0.000689967 -0)
(-4.9314e-05 -0.000706479 -0)
(-5.62438e-05 -0.000708253 -0)
(-6.22499e-05 -0.000700452 -0)
(-6.73664e-05 -0.000686201 -0)
(-7.16206e-05 -0.000667467 -0)
(-7.50383e-05 -0.000645561 -0)
(-7.76505e-05 -0.000621434 -0)
(-7.94981e-05 -0.000595839 -0)
(-8.06388e-05 -0.000569441 -0)
(-8.11488e-05 -0.000542862 -0)
(-8.11249e-05 -0.000516712 -0)
(-8.06843e-05 -0.000491599 -0)
(-7.99626e-05 -0.000468136 -0)
(-7.91106e-05 -0.00044693 -0)
(-7.82854e-05 -0.000428559 -0)
(-7.76468e-05 -0.000413573 -0)
(-7.72738e-05 -0.000402088 -0)
(-7.83259e-05 -0.000399789 -0)
(-8.07271e-05 -0.000405873 -0)
(-8.44869e-05 -0.000420205 -0)
(-8.95046e-05 -0.000442315 -0)
(-9.54027e-05 -0.000470592 -0)
(-0.000101407 -0.000501664 -0)
(-0.000106355 -0.000530276 -0)
(-0.000108809 -0.000549591 -0)
(-0.000107313 -0.000552027 -0)
(-0.000100741 -0.000530697 -0)
(-8.8676e-05 -0.000481144 -0)
(-7.16472e-05 -0.000402826 -0)
(-5.11173e-05 -0.000299722 -0)
(-2.9207e-05 -0.000179832 -0)
(-8.2554e-06 -5.37815e-05 -0)
(9.64107e-06 6.70184e-05 0)
(2.29953e-05 0.000172201 0)
(2.36977e-06 0.000362713 0)
(5.91837e-07 3.09455e-05 0)
(-5.65657e-06 -0.000182923 -0)
(-1.31766e-05 -0.000312272 -0)
(-2.05497e-05 -0.000386847 -0)
(-2.7226e-05 -0.000426715 -0)
(-3.30291e-05 -0.000444537 -0)
(-3.79263e-05 -0.000448114 -0)
(-4.19325e-05 -0.000442253 -0)
(-4.50754e-05 -0.000429969 -0)
(-4.73867e-05 -0.000413224 -0)
(-4.89026e-05 -0.000393367 -0)
(-4.96687e-05 -0.000371394 -0)
(-4.97434e-05 -0.000348102 -0)
(-4.92031e-05 -0.000324188 -0)
(-4.81443e-05 -0.000300298 -0)
(-4.66848e-05 -0.000277057 -0)
(-4.49635e-05 -0.00025508 -0)
(-4.31385e-05 -0.000234981 -0)
(-4.13839e-05 -0.000217373 -0)
(-3.98788e-05 -0.000202826 -0)
(-3.86596e-05 -0.000191168 -0)
(-3.8739e-05 -0.000187002 -0)
(-4.0462e-05 -0.000191456 -0)
(-4.38711e-05 -0.000204335 -0)
(-4.89701e-05 -0.000225478 -0)
(-5.55666e-05 -0.000254053 -0)
(-6.31108e-05 -0.000287842 -0)
(-7.05652e-05 -0.0003226 -0)
(-7.63914e-05 -0.000351813 -0)
(-7.87008e-05 -0.000367023 -0)
(-7.55949e-05 -0.000358918 -0)
(-6.5658e-05 -0.000319164 -0)
(-4.84543e-05 -0.00024256 -0)
(-2.4834e-05 -0.000128814 -0)
(3.1092e-06 1.68204e-05 0)
(3.24281e-05 0.000184264 0)
(5.99194e-05 0.000360389 0)
(8.27332e-05 0.000531258 0)
(9.88374e-05 0.000684225 0)
(3.44075e-06 0.000504856 0)
(4.41989e-06 0.000220697 0)
(1.02506e-06 3.15126e-05 0)
(-3.85768e-06 -8.66058e-05 -0)
(-8.82814e-06 -0.000157019 -0)
(-1.32756e-05 -0.000196198 -0)
(-1.69616e-05 -0.000214932 -0)
(-1.98107e-05 -0.000220107 -0)
(-2.18139e-05 -0.000216118 -0)
(-2.29896e-05 -0.000205816 -0)
(-2.33706e-05 -0.000191116 -0)
(-2.30008e-05 -0.000173371 -0)
(-2.19374e-05 -0.000153599 -0)
(-2.0254e-05 -0.000132623 -0)
(-1.80433e-05 -0.00011116 -0)
(-1.54199e-05 -8.98685e-05 -0)
(-1.25209e-05 -6.93792e-05 -0)
(-9.50472e-06 -5.03073e-05 -0)
(-6.54968e-06 -3.32609e-05 -0)
(-3.85329e-06 -1.88543e-05 -0)
(-1.62169e-06 -7.67727e-06 -0)
(-1.35035e-07 -6.21024e-07 -0)
(-5.55364e-07 -2.49131e-06 -0)
(-2.91383e-06 -1.28023e-05 -0)
(-7.31666e-06 -3.16176e-05 -0)
(-1.37475e-05 -5.86823e-05 -0)
(-2.18999e-05 -9.27545e-05 -0)
(-3.0997e-05 -0.00013087 -0)
(-3.96399e-05 -0.000167642 -0)
(-4.57852e-05 -0.000194939 -0)
(-4.69436e-05 -0.000202281 -0)
(-4.06455e-05 -0.000178228 -0)
(-2.5113e-05 -0.000112699 -0)