/*--------------------------------*- C++ -*----------------------------------*\
  =========                 |
  \\      /  F ield         | OpenFOAM: The Open Source CFD Toolbox
   \\    /   O peration     | Website:  https://openfoam.org
    \\  /    A nd           | Version:  6
     \\/     M anipulation  |
\*---------------------------------------------------------------------------*/
FoamFile
{
    version     2.0;
    format      ascii;
    class       volScalarField;
    location    "10";
    object      fw;
}
// * * * * * * * * * * * * * * * * * * * * * * * * * * * * * * * * * * * * * //

dimensions      [0 0 0 0 0 0 0];

internalField   nonuniform List<scalar> 
8800
(
4.40761
4.40914
4.41169
4.41506
4.41918
4.42403
4.42959
4.43586
4.44282
4.45046
4.45875
4.46767
4.4772
4.48732
4.49798
4.50918
4.52087
4.53302
4.5456
4.55857
4.5719
4.58555
4.59947
4.61362
4.62796
4.64243
4.65698
4.67157
4.68613
4.7006
4.71494
4.72909
4.74298
4.75658
4.76981
4.78262
4.79495
4.80673
4.81791
4.8284
4.23786
4.23916
4.24149
4.24466
4.2486
4.25327
4.25864
4.2647
4.27143
4.27882
4.28685
4.2955
4.30475
4.31457
4.32493
4.33582
4.34719
4.35901
4.37127
4.38391
4.39691
4.41023
4.42382
4.43765
4.45166
4.46582
4.48006
4.49434
4.5086
4.52279
4.53685
4.55073
4.56438
4.57774
4.59075
4.60336
4.61549
4.62708
4.63807
4.6484
4.0899
4.0912
4.09344
4.09649
4.10028
4.10479
4.10999
4.11587
4.12241
4.1296
4.13741
4.14583
4.15484
4.16442
4.17454
4.18517
4.19628
4.20786
4.21986
4.23225
4.245
4.25808
4.27143
4.28503
4.29882
4.31276
4.32679
4.34088
4.35495
4.36897
4.38287
4.39662
4.41015
4.4234
4.43632
4.44884
4.4609
4.47243
4.48336
4.49364
3.96137
3.96268
3.96489
3.96787
3.97156
3.97595
3.98101
3.98674
3.99312
4.00014
4.00778
4.01602
4.02484
4.03423
4.04416
4.0546
4.06553
4.07693
4.08875
4.10098
4.11358
4.1265
4.13972
4.15319
4.16687
4.18071
4.19466
4.20867
4.22268
4.23666
4.25055
4.26431
4.27786
4.29116
4.30412
4.3167
4.32882
4.34041
4.35141
4.36176
3.84987
3.85118
3.85337
3.85631
3.85993
3.86423
3.86919
3.8748
3.88106
3.88795
3.89546
3.90357
3.91227
3.92153
3.93133
3.94166
3.95248
3.96378
3.97552
3.98768
4.00022
4.0131
4.02629
4.03976
4.05344
4.06731
4.08131
4.09538
4.10948
4.12358
4.13761
4.15153
4.16526
4.17874
4.1919
4.20467
4.21699
4.22878
4.23997
4.25051
3.75313
3.75444
3.75661
3.75951
3.76309
3.76733
3.77222
3.77776
3.78393
3.79074
3.79817
3.80621
3.81483
3.82403
3.83379
3.84407
3.85488
3.86617
3.87792
3.89011
3.9027
3.91566
3.92895
3.94253
3.95636
3.97039
3.98458
3.99887
4.01322
4.02759
4.04193
4.05616
4.07021
4.08402
4.09752
4.11062
4.12327
4.13538
4.14689
4.15772
3.66912
3.6704
3.67255
3.67542
3.67896
3.68316
3.68801
3.69351
3.69965
3.70643
3.71383
3.72185
3.73047
3.73968
3.74946
3.7598
3.77066
3.78205
3.79391
3.80624
3.819
3.83216
3.84567
3.85951
3.87362
3.88796
3.90249
3.91715
3.9319
3.94671
3.9615
3.97618
3.9907
4.00498
4.01894
4.03251
4.0456
4.05815
4.07008
4.08132
3.59598
3.59722
3.59934
3.60218
3.6057
3.60989
3.61473
3.62022
3.62637
3.63316
3.64059
3.64866
3.65734
3.66664
3.67652
3.68699
3.69802
3.70959
3.72168
3.73427
3.74731
3.76078
3.77465
3.78887
3.8034
3.81819
3.8332
3.84838
3.8637
3.87908
3.89445
3.90972
3.92484
3.93971
3.95425
3.96839
3.98205
3.99514
4.00759
4.01932
3.53209
3.53328
3.53536
3.53818
3.54169
3.54588
3.55074
3.55627
3.56246
3.56932
3.57684
3.58501
3.59383
3.60328
3.61336
3.62405
3.63533
3.64719
3.6596
3.67254
3.68599
3.6999
3.71424
3.72897
3.74405
3.75943
3.77506
3.7909
3.8069
3.82297
3.83904
3.85503
3.87085
3.88642
3.90166
3.91648
3.93079
3.94451
3.95756
3.96986
3.47604
3.47718
3.4792
3.482
3.48552
3.48973
3.49464
3.50024
3.50652
3.5135
3.52115
3.52949
3.53851
3.54819
3.55854
3.56953
3.58115
3.59339
3.60622
3.61963
3.63357
3.64803
3.66296
3.67832
3.69406
3.71015
3.72652
3.74314
3.75994
3.77682
3.7937
3.8105
3.82713
3.8435
3.85952
3.8751
3.89014
3.90457
3.9183
3.93123
3.4266
3.42768
3.42966
3.43244
3.43598
3.44024
3.44522
3.45091
3.45733
3.46446
3.47231
3.48088
3.49015
3.50013
3.51081
3.52218
3.53422
3.54692
3.56027
3.57422
3.58877
3.60387
3.61948
3.63557
3.65209
3.66899
3.68621
3.70371
3.7214
3.73918
3.75697
3.77467
3.7922
3.80945
3.82633
3.84275
3.85861
3.87381
3.88827
3.9019
3.38272
3.38375
3.38569
3.38847
3.39203
3.39635
3.40143
3.40726
3.41384
3.42117
3.42926
3.4381
3.44769
3.45802
3.4691
3.48091
3.49345
3.50668
3.52061
3.5352
3.55043
3.56625
3.58264
3.59955
3.61694
3.63474
3.6529
3.67136
3.69002
3.70879
3.72757
3.74626
3.76476
3.78297
3.80079
3.81812
3.83485
3.85089
3.86615
3.88053
3.34351
3.34449
3.3464
3.34917
3.35277
3.35718
3.36238
3.36836
3.37514
3.38271
3.39108
3.40023
3.41018
3.42093
3.43246
3.44477
3.45785
3.47169
3.48626
3.50155
3.51753
3.53416
3.5514
3.5692
3.58752
3.6063
3.62549
3.64498
3.66469
3.68452
3.70437
3.72412
3.74367
3.76292
3.78174
3.80005
3.81772
3.83467
3.85078
3.86596
3.3082
3.30914
3.31102
3.3138
3.31746
3.32196
3.32729
3.33346
3.34046
3.3483
3.35697
3.36648
3.37683
3.38802
3.40005
3.41291
3.42659
3.44107
3.45635
3.4724
3.48918
3.50667
3.52482
3.54359
3.56292
3.58275
3.60301
3.62361
3.64445
3.66541
3.68639
3.70728
3.72796
3.74831
3.76822
3.78758
3.80626
3.82417
3.8412
3.85725
3.27613
3.27703
3.27889
3.2817
3.28542
3.29003
3.29552
3.30189
3.30913
3.31726
3.32626
3.33616
3.34694
3.35861
3.37117
3.38461
3.39893
3.4141
3.43013
3.44698
3.46462
3.48302
3.50213
3.52192
3.54231
3.56325
3.58465
3.60642
3.62845
3.65061
3.67281
3.69491
3.71679
3.73833
3.75941
3.77989
3.79967
3.81863
3.83666
3.85364
3.24674
3.24762
3.24947
3.2523
3.25609
3.26082
3.26648
3.27306
3.28057
3.289
3.29836
3.30866
3.3199
3.33207
3.34519
3.35924
3.37422
3.39012
3.40693
3.42461
3.44315
3.46251
3.48263
3.50348
3.52499
3.54709
3.5697
3.5927
3.61599
3.63943
3.66292
3.68632
3.7095
3.73232
3.75464
3.77635
3.79732
3.81741
3.83652
3.85452
3.21955
3.2204
3.22226
3.22513
3.229
3.23386
3.2397
3.2465
3.25428
3.26303
3.27276
3.28347
3.29518
3.30787
3.32157
3.33625
3.35192
3.36857
3.38618
3.40474
3.4242
3.44455
3.46572
3.48768
3.51036
3.53368
3.55755
3.58185
3.60647
3.63128
3.65615
3.68094
3.70551
3.72971
3.7534
3.77644
3.7987
3.82004
3.84034
3.85946
3.19413
3.19498
3.19685
3.19976
3.20372
3.20872
3.21473
3.22177
3.22982
3.2389
3.249
3.26014
3.27233
3.28556
3.29984
3.31517
3.33154
3.34896
3.3674
3.38684
3.40726
3.42863
3.45089
3.474
3.4979
3.5225
3.54769
3.57337
3.5994
3.62567
3.65201
3.6783
3.70437
3.73007
3.75525
3.77976
3.80345
3.82617
3.84778
3.86814
3.17014
3.17099
3.17288
3.17585
3.1799
3.18503
3.19123
3.19849
3.20683
3.21623
3.22672
3.23829
3.25095
3.26472
3.2796
3.29558
3.31267
3.33086
3.35014
3.3705
3.3919
3.41431
3.4377
3.46201
3.48717
3.5131
3.53969
3.56682
3.59436
3.62218
3.65012
3.67802
3.70573
3.73308
3.7599
3.78603
3.8113
3.83555
3.85864
3.88039
3.14726
3.14812
3.15004
3.15306
3.15721
3.16248
3.16886
3.17636
3.18497
3.1947
3.20556
3.21756
3.23071
3.24502
3.26049
3.27713
3.29494
3.31391
3.33405
3.35533
3.37773
3.40123
3.42577
3.45132
3.4778
3.50512
3.53318
3.56184
3.59099
3.62048
3.65014
3.67981
3.70931
3.73847
3.76711
3.79504
3.82209
3.84808
3.87282
3.89614
3.12523
3.12611
3.12806
3.13115
3.1354
3.1408
3.14737
3.15509
3.16398
3.17403
3.18526
3.19769
3.21131
3.22615
3.24221
3.2595
3.27803
3.2978
3.31879
3.34101
3.36443
3.38903
3.41477
3.4416
3.46945
3.49823
3.52783
3.55814
3.58901
3.62029
3.65182
3.68341
3.7149
3.74607
3.77674
3.80671
3.83577
3.86372
3.89035
3.91545
3.10382
3.10472
3.10671
3.10987
3.11422
3.11976
3.1265
3.13445
3.1436
3.15396
3.16556
3.1784
3.19249
3.20785
3.2245
3.24244
3.26168
3.28224
3.3041
3.32726
3.35172
3.37744
3.4044
3.43256
3.46183
3.49214
3.52338
3.55543
3.58815
3.62137
3.65494
3.68866
3.72234
3.75576
3.78872
3.821
3.85235
3.88254
3.91133
3.93847
3.08283
3.08376
3.0858
3.08903
3.09347
3.09915
3.10606
3.11422
3.12363
3.1343
3.14624
3.15948
3.17403
3.1899
3.20712
3.2257
3.24565
3.26699
3.28971
3.31383
3.33933
3.3662
3.39442
3.42394
3.4547
3.48661
3.51958
3.55348
3.58819
3.62353
3.65933
3.6954
3.73152
3.76748
3.80305
3.83796
3.87194
3.90472
3.936
3.9655
3.0621
3.06306
3.06515
3.06844
3.07299
3.07879
3.08587
3.09423
3.10388
3.11484
3.12712
3.14075
3.15573
3.1721
3.18988
3.20908
3.22972
3.25183
3.27542
3.30049
3.32704
3.35508
3.38458
3.41551
3.4478
3.4814
3.5162
3.55209
3.58893
3.62658
3.66483
3.70351
3.74238
3.78122
3.81976
3.8577
3.89474
3.93053
3.96472
3.99694
3.04148
3.04247
3.04461
3.04797
3.05261
3.05854
3.06577
3.07432
3.0842
3.09544
3.10804
3.12203
3.13743
3.15428
3.17259
3.1924
3.21372
3.23659
3.26102
3.28704
3.31466
3.34387
3.37468
3.40705
3.44094
3.47629
3.51303
3.55103
3.59019
3.63034
3.67131
3.7129
3.75488
3.79699
3.83896
3.88043
3.92104
3.96037
3.99796
4.03339
3.02085
3.02187
3.02405
3.02749
3.03221
3.03826
3.04564
3.05437
3.06446
3.07595
3.08885
3.10318
3.11898
3.13628
3.15511
3.17549
3.19748
3.22109
3.24636
3.27332
3.30199
3.33239
3.36451
3.39836
3.4339
3.47108
3.50985
3.55012
3.59177
3.63466
3.67862
3.72347
3.76897
3.81485
3.8608
3.90642
3.95125
3.99477
4.03641
4.07563
3.00009
3.00114
3.00338
3.00688
3.01169
3.01784
3.02535
3.03425
3.04454
3.05626
3.06943
3.08409
3.10026
3.11798
3.13729
3.15824
3.18085
3.20518
3.23126
3.25914
3.28886
3.32044
3.35389
3.38924
3.42647
3.46556
3.50647
3.54913
3.59346
3.63934
3.68662
3.73512
3.78464
3.83488
3.88549
3.93601
3.98588
4.03443
4.08094
4.12469
2.97913
2.98021
2.9825
2.98606
2.99095
2.9972
3.00483
3.01387
3.02434
3.03627
3.0497
3.06464
3.08116
3.09927
3.11904
3.14051
3.16372
3.18873
3.2156
3.24438
3.27512
3.30786
3.34264
3.37949
3.41845
3.4595
3.50264
3.54784
3.59505
3.64418
3.69512
3.74774
3.80184
3.85715
3.91326
3.96965
4.0256
4.08027
4.1327
4.18194
2.9579
2.959
2.96133
2.96495
2.96991
2.97625
2.98398
2.99315
3.00378
3.0159
3.02955
3.04476
3.06158
3.08006
3.10025
3.1222
3.14597
3.17163
3.19925
3.22889
3.26061
3.29448
3.33057
3.36893
3.40962
3.45268
3.49813
3.54599
3.59626
3.64891
3.70391
3.76115
3.82051
3.88173
3.94439
4.00786
4.07125
4.13346
4.1932
4.24918
2.93632
2.93746
2.93983
2.9435
2.94852
2.95493
2.96275
2.97203
2.9828
2.99508
3.00892
3.02437
3.04147
3.06027
3.08083
3.10323
3.12752
3.15378
3.18209
3.21254
3.2452
3.28016
3.31752
3.35736
3.39977
3.44484
3.49266
3.54328
3.59679
3.65324
3.71268
3.77512
3.84052
3.90867
3.97916
4.05125
4.12385
4.19549
4.26443
4.32887
2.91436
2.91552
2.91793
2.92164
2.92671
2.93318
2.94109
2.95046
2.96134
2.97376
2.98777
3.00341
3.02075
3.03983
3.06073
3.08352
3.10828
3.13509
3.16404
3.19523
3.22876
3.26474
3.3033
3.34456
3.38866
3.43573
3.48592
3.53938
3.59627
3.65677
3.72106
3.78931
3.86161
3.9379
4.0178
4.1005
4.18464
4.26829
4.34903
4.42425
2.89198
2.89316
2.8956
2.89935
2.90446
2.91098
2.91895
2.92839
2.93936
2.95189
2.96603
2.98185
2.99938
3.01871
3.0399
3.06303
3.0882
3.11548
3.145
3.17684
3.21116
3.24807
3.28775
3.33034
3.37605
3.42505
3.47758
3.53389
3.59425
3.65901
3.72853
3.80321
3.88339
3.96922
4.06046
4.15629
4.25508
4.35428
4.45053
4.53974
2.86916
2.87036
2.87282
2.8766
2.88174
2.8883
2.8963
2.9058
2.91683
2.92945
2.9437
2.95964
2.97734
2.99686
3.01829
3.04171
3.06722
3.0949
3.12489
3.1573
3.19229
3.23002
3.27069
3.3145
3.36168
3.4125
3.46727
3.52637
3.59022
3.65936
3.73443
3.81615
3.90521
4.00214
4.10704
4.21921
4.33681
4.45659
4.57362
4.68159
2.84588
2.84709
2.84957
2.85337
2.85853
2.86511
2.87314
2.88267
2.89375
2.90642
2.92075
2.93679
2.95461
2.97429
2.9959
3.01954
3.0453
3.07329
3.10365
3.13651
3.17206
3.21047
3.25197
3.29682
3.3453
3.39775
3.45459
3.51632
3.58356
3.65711
3.73793
3.82717
3.92609
4.03581
4.15704
4.28953
4.43151
4.57894
4.72465
4.85878
2.82213
2.82335
2.82584
2.82965
2.83482
2.84141
2.84945
2.859
2.8701
2.88281
2.89718
2.91329
2.93119
2.95097
2.97271
2.99649
3.02242
3.05062
3.08123
3.11442
3.15037
3.18929
3.23144
3.27711
3.32666
3.38049
3.43913
3.50322
3.57362
3.6514
3.73796
3.83503
3.9446
4.06875
4.20924
4.36685
4.54053
4.72563
4.91232
5.08498
2.79791
2.79914
2.80163
2.80545
2.81062
2.8172
2.82524
2.83479
2.84589
2.85861
2.87301
2.88914
2.90709
2.92691
2.9487
2.97254
2.99855
3.02686
3.05761
3.09097
3.12715
3.16639
3.20896
3.25521
3.30552
3.3604
3.42047
3.48653
3.55967
3.64129
3.7333
3.83814
3.95878
4.09866
4.26125
4.44942
4.66398
4.90101
5.1485
5.38169
2.77323
2.77446
2.77696
2.78077
2.78593
2.7925
2.80053
2.81006
2.82115
2.83386
2.84825
2.86438
2.88231
2.90212
2.92389
2.94771
2.9737
3.00199
3.03274
3.06612
3.10236
3.14169
3.18443
3.23095
3.28169
3.33721
3.39824
3.46573
3.54099
3.6258
3.72258
3.8346
3.96606
4.12218
4.30902
4.53301
4.79914
5.108
5.44825
5.78454
2.74811
2.74934
2.75183
2.75563
2.76077
2.76732
2.77532
2.78483
2.79589
2.80858
2.82293
2.83901
2.85688
2.87661
2.89828
2.922
2.94787
2.97603
3.00663
3.03987
3.07595
3.11515
3.15778
3.20424
3.25501
3.31071
3.37214
3.44038
3.51695
3.60396
3.70438
3.8223
3.96331
4.13478
4.34625
4.6095
4.93788
5.34358
5.82727
6.35493
2.72257
2.72379
2.72627
2.73004
2.73517
2.74169
2.74965
2.75913
2.77015
2.78278
2.79706
2.81305
2.8308
2.8504
2.87191
2.89543
2.92108
2.94898
2.97929
3.0122
3.04792
3.08674
3.12898
3.17503
3.22541
3.28077
3.34196
3.41016
3.48705
3.575
3.67743
3.7992
3.94718
4.13097
4.36405
4.6653
5.06176
5.58982
6.29147
7.19313
2.69662
2.69783
2.70029
2.70405
2.70914
2.71563
2.72356
2.73299
2.74395
2.75649
2.77067
2.78653
2.80412
2.82352
2.8448
2.86804
2.89335
2.92087
2.95073
2.98314
3.0183
3.05649
3.09803
3.14333
3.19289
3.24736
3.30764
3.37494
3.45102
3.53842
3.64085
3.76368
3.91466
4.1051
4.35176
4.68077
5.13638
5.7969
6.80734
8.43164
4.83816
4.84713
4.85524
4.86245
4.86872
4.874
4.87826
4.88148
4.88363
4.88472
4.88472
4.88363
4.88148
4.87826
4.874
4.86872
4.86245
4.85524
4.84713
4.83816
4.65801
4.66683
4.67482
4.68192
4.68809
4.69329
4.69749
4.70066
4.70278
4.70384
4.70385
4.70278
4.70066
4.69749
4.69329
4.68809
4.68193
4.67482
4.66684
4.65801
4.5032
4.51199
4.51994
4.52702
4.53316
4.53834
4.54252
4.54568
4.54779
4.54885
4.54885
4.54779
4.54568
4.54252
4.53834
4.53316
4.52702
4.51994
4.51199
4.5032
4.37139
4.38024
4.38825
4.39538
4.40158
4.4068
4.41102
4.41421
4.41634
4.4174
4.4174
4.41634
4.41421
4.41102
4.40681
4.40158
4.39539
4.38826
4.38024
4.37139
4.26031
4.26933
4.2775
4.28477
4.29109
4.29642
4.30073
4.30398
4.30615
4.30724
4.30724
4.30615
4.30398
4.30073
4.29642
4.29109
4.28477
4.2775
4.26933
4.26032
4.16781
4.17709
4.18551
4.193
4.19951
4.205
4.20944
4.21279
4.21504
4.21616
4.21616
4.21504
4.21279
4.20944
4.205
4.19951
4.193
4.18551
4.1771
4.16781
4.09179
4.10142
4.11016
4.11794
4.12471
4.13042
4.13503
4.13852
4.14085
4.14202
4.14202
4.14085
4.13852
4.13503
4.13042
4.12471
4.11794
4.11016
4.10142
4.09179
4.03025
4.04031
4.04944
4.05757
4.06465
4.07062
4.07545
4.0791
4.08155
4.08277
4.08277
4.08155
4.0791
4.07545
4.07062
4.06465
4.05758
4.04944
4.04032
4.03025
3.98133
3.99188
4.00146
4.01
4.01743
4.0237
4.02878
4.03261
4.03518
4.03647
4.03647
4.03518
4.03261
4.02878
4.0237
4.01743
4.01
4.00147
3.99189
3.98133
3.94329
3.9544
3.96448
3.97347
3.98129
3.9879
3.99324
3.99728
3.99999
4.00135
4.00135
3.99999
3.99728
3.99324
3.9879
3.98129
3.97347
3.96448
3.9544
3.94329
3.91461
3.92632
3.93694
3.94641
3.95466
3.96163
3.96727
3.97153
3.97439
3.97583
3.97583
3.97439
3.97153
3.96727
3.96163
3.95466
3.94642
3.93694
3.92632
3.91461
3.89393
3.90628
3.9175
3.92749
3.93619
3.94355
3.9495
3.954
3.95702
3.95853
3.95853
3.95702
3.954
3.9495
3.94355
3.93619
3.92749
3.9175
3.90628
3.89393
3.88012
3.89316
3.90499
3.91555
3.92474
3.93251
3.93879
3.94354
3.94673
3.94833
3.94833
3.94673
3.94354
3.93879
3.93251
3.92474
3.91555
3.90499
3.89316
3.88012
3.87221
3.886
3.89851
3.90966
3.91937
3.92757
3.93421
3.93923
3.9426
3.94429
3.94429
3.9426
3.93923
3.93421
3.92757
3.91937
3.90966
3.89851
3.886
3.87221
3.86947
3.88405
3.89729
3.90908
3.91935
3.92803
3.93505
3.94035
3.94391
3.94569
3.9457
3.94391
3.94035
3.93505
3.92803
3.91935
3.90908
3.89729
3.88405
3.86947
3.8713
3.88675
3.90078
3.91327
3.92415
3.93333
3.94075
3.94636
3.95013
3.95201
3.95201
3.95013
3.94636
3.94075
3.93333
3.92415
3.91327
3.90078
3.88675
3.8713
3.87728
3.89369
3.90857
3.92183
3.93336
3.9431
3.95096
3.9569
3.96089
3.96289
3.96289
3.96089
3.9569
3.95096
3.9431
3.93336
3.92183
3.90857
3.89369
3.87728
3.88712
3.90459
3.92042
3.93452
3.94678
3.95711
3.96545
3.97176
3.97598
3.97809
3.97809
3.97598
3.97176
3.96545
3.95711
3.94678
3.93452
3.92042
3.90459
3.88712
3.90066
3.91931
3.93621
3.95123
3.96429
3.97528
3.98415
3.99084
3.99531
3.99756
3.99756
3.99531
3.99084
3.98415
3.97528
3.96429
3.95123
3.93621
3.91931
3.90066
3.91787
3.93785
3.95593
3.97199
3.98592
3.99764
4.00708
4.01419
4.01895
4.02133
4.02133
4.01895
4.01419
4.00708
3.99764
3.98592
3.97199
3.95593
3.93785
3.91787
3.93883
3.96031
3.97973
3.99694
4.01185
4.02436
4.03441
4.04198
4.04704
4.04957
4.04957
4.04704
4.04198
4.03441
4.02436
4.01185
3.99694
3.97973
3.96031
3.93883
3.96374
3.98693
4.00784
4.02635
4.04233
4.05571
4.06644
4.0745
4.07987
4.08255
4.08255
4.07987
4.0745
4.06644
4.05571
4.04233
4.02635
4.00784
3.98692
3.96374
3.99293
4.01806
4.04068
4.06063
4.0778
4.09212
4.10357
4.11215
4.11786
4.12071
4.12071
4.11786
4.11215
4.10357
4.09212
4.0778
4.06063
4.04068
4.01806
3.99293
4.02688
4.05424
4.07879
4.10035
4.11882
4.13417
4.14639
4.15551
4.16156
4.16458
4.16458
4.16156
4.15551
4.14639
4.13417
4.11882
4.10035
4.07879
4.05424
4.02688
4.06625
4.09618
4.12291
4.14627
4.16617
4.18261
4.19562
4.20527
4.21166
4.21483
4.21483
4.21166
4.20527
4.19562
4.18261
4.16617
4.14627
4.12291
4.09617
4.06625
4.11191
4.14481
4.17403
4.19939
4.22081
4.23835
4.25212
4.26227
4.26894
4.27225
4.27225
4.26894
4.26227
4.25212
4.23835
4.22081
4.19939
4.17403
4.14481
4.1119
4.16501
4.20138
4.23343
4.26095
4.28394
4.30253
4.31697
4.32752
4.3344
4.3378
4.3378
4.3344
4.32752
4.31697
4.30253
4.28394
4.26095
4.23343
4.20138
4.16501
4.22711
4.26754
4.30275
4.33255
4.35706
4.37658
4.39151
4.40227
4.40922
4.41262
4.41262
4.40922
4.40227
4.39151
4.37658
4.35706
4.33255
4.30274
4.26754
4.22711
4.30024
4.3454
4.3841
4.41623
4.44209
4.46223
4.47732
4.48798
4.49476
4.49806
4.49805
4.49476
4.48798
4.47732
4.46223
4.44209
4.41622
4.38409
4.3454
4.30024
4.3871
4.43778
4.48026
4.5146
4.54141
4.56163
4.57629
4.58635
4.5926
4.59559
4.59559
4.5926
4.58635
4.57629
4.56163
4.54141
4.51459
4.48026
4.43778
4.3871
4.49134
4.54847
4.5949
4.63101
4.65796
4.67729
4.6906
4.69928
4.70444
4.70683
4.70683
4.70444
4.69928
4.6906
4.67729
4.65796
4.63101
4.5949
4.54847
4.49134
4.61801
4.68265
4.73288
4.76972
4.7953
4.81214
4.82263
4.82877
4.83204
4.83344
4.83344
4.83204
4.82877
4.82263
4.81214
4.7953
4.76971
4.73287
4.68265
4.61801
4.77429
4.84753
4.90068
4.93609
4.95764
4.96939
4.97486
4.97677
4.97705
4.97691
4.97691
4.97705
4.97677
4.97486
4.96939
4.95764
4.93609
4.90068
4.84753
4.77429
4.97081
5.05353
5.10704
5.13674
5.14967
5.15226
5.14951
5.14492
5.14077
5.13838
5.13838
5.14076
5.14492
5.14951
5.15226
5.14967
5.13674
5.10704
5.05353
4.97081
5.22427
5.31608
5.36371
5.37946
5.37611
5.36348
5.34815
5.33414
5.3238
5.31836
5.31836
5.3238
5.33414
5.34815
5.36348
5.37611
5.37946
5.3637
5.31607
5.22426
5.563
5.65925
5.68626
5.67262
5.64074
5.60437
5.57095
5.54418
5.52578
5.51645
5.51645
5.52578
5.54418
5.57095
5.60437
5.64074
5.67262
5.68626
5.65925
5.563
6.04212
6.12248
6.0941
6.02289
5.9442
5.87334
5.81586
5.77313
5.74505
5.73116
5.73116
5.74505
5.77313
5.81586
5.87334
5.94419
6.02288
6.0941
6.12248
6.04212
6.79037
6.77092
6.6053
6.42903
6.28002
6.16391
6.0777
6.01713
5.97868
5.96003
5.96003
5.97868
6.01713
6.0777
6.16391
6.28002
6.42903
6.6053
6.77092
6.79037
8.19196
7.69557
7.21321
6.86822
6.62912
6.46302
6.34805
6.27072
6.22292
6.20006
6.20006
6.22292
6.27072
6.34805
6.46301
6.62912
6.86822
7.21321
7.69557
8.19196
11.821
8.87301
7.81358
7.27537
6.95627
6.75187
6.61666
6.52809
6.47416
6.44858
6.44858
6.47416
6.52808
6.61666
6.75187
6.95627
7.27537
7.81358
8.87301
11.821
4.8284
4.81791
4.80674
4.79496
4.78263
4.76981
4.75658
4.74299
4.72909
4.71495
4.70061
4.68613
4.67157
4.65699
4.64243
4.62796
4.61363
4.59947
4.58555
4.57191
4.55858
4.5456
4.53302
4.52087
4.50918
4.49799
4.48732
4.47721
4.46768
4.45875
4.45046
4.44283
4.43587
4.4296
4.42403
4.41919
4.41507
4.4117
4.40915
4.40762
4.6484
4.63807
4.62708
4.61549
4.60336
4.59076
4.57775
4.56439
4.55074
4.53686
4.5228
4.50861
4.49435
4.48007
4.46582
4.45167
4.43766
4.42383
4.41024
4.39692
4.38392
4.37127
4.35902
4.34719
4.33582
4.32494
4.31457
4.30476
4.29551
4.28686
4.27883
4.27143
4.2647
4.25864
4.25327
4.2486
4.24466
4.24149
4.23916
4.23786
4.49364
4.48336
4.47243
4.4609
4.44885
4.43633
4.42341
4.41015
4.39662
4.38287
4.36897
4.35496
4.34088
4.3268
4.31276
4.29882
4.28503
4.27144
4.25808
4.24501
4.23226
4.21986
4.20786
4.19629
4.18517
4.17454
4.16442
4.15485
4.14584
4.13742
4.1296
4.12242
4.11587
4.11
4.10479
4.10029
4.09649
4.09344
4.0912
4.08991
4.36176
4.35141
4.34041
4.32882
4.3167
4.30413
4.29116
4.27787
4.26431
4.25055
4.23666
4.22269
4.20867
4.19466
4.18071
4.16687
4.15319
4.13972
4.12651
4.11358
4.10099
4.08876
4.07693
4.06554
4.05461
4.04416
4.03424
4.02485
4.01602
4.00778
4.00014
3.99312
3.98674
3.98101
3.97595
3.97156
3.96787
3.96489
3.96268
3.96137
4.25051
4.23998
4.22878
4.21699
4.20468
4.1919
4.17874
4.16527
4.15153
4.13762
4.12358
4.10949
4.09538
4.08131
4.06731
4.05345
4.03976
4.0263
4.0131
4.00022
3.98768
3.97553
3.96379
3.95249
3.94166
3.93134
3.92153
3.91227
3.90358
3.89547
3.88796
3.88107
3.87481
3.86919
3.86423
3.85993
3.85631
3.85338
3.85118
3.84987
4.15772
4.14689
4.13538
4.12327
4.11063
4.09752
4.08403
4.07022
4.05616
4.04193
4.0276
4.01322
3.99887
3.98458
3.9704
3.95636
3.94253
3.92895
3.91566
3.9027
3.89011
3.87792
3.86617
3.85488
3.84408
3.83379
3.82404
3.81484
3.80621
3.79818
3.79075
3.78394
3.77776
3.77222
3.76733
3.76309
3.75952
3.75662
3.75444
3.75314
4.08132
4.07009
4.05816
4.04561
4.03251
4.01894
4.00498
3.99071
3.97619
3.9615
3.94672
3.93191
3.91715
3.90249
3.88797
3.87362
3.85951
3.84568
3.83216
3.81901
3.80625
3.79392
3.78205
3.77067
3.7598
3.74946
3.73968
3.73047
3.72185
3.71384
3.70643
3.69966
3.69352
3.68802
3.68317
3.67897
3.67542
3.67255
3.6704
3.66912
4.01932
4.00759
3.99514
3.98205
3.9684
3.95425
3.93971
3.92484
3.90973
3.89445
3.87908
3.8637
3.84839
3.83321
3.8182
3.8034
3.78887
3.77465
3.76079
3.74731
3.73427
3.72169
3.7096
3.69803
3.687
3.67653
3.66664
3.65735
3.64866
3.6406
3.63317
3.62637
3.62023
3.61473
3.60989
3.60571
3.60218
3.59934
3.59722
3.59598
3.96986
3.95756
3.94451
3.93079
3.91648
3.90166
3.88643
3.87085
3.85503
3.83905
3.82298
3.8069
3.7909
3.77506
3.75943
3.74405
3.72897
3.71424
3.6999
3.68599
3.67255
3.6596
3.64719
3.63533
3.62405
3.61336
3.60328
3.59383
3.58501
3.57684
3.56932
3.56247
3.55627
3.55074
3.54588
3.54169
3.53818
3.53536
3.53329
3.53209
3.93123
3.9183
3.90458
3.89015
3.8751
3.85952
3.8435
3.82713
3.8105
3.7937
3.77682
3.75994
3.74314
3.72652
3.71015
3.69406
3.67832
3.66296
3.64803
3.63357
3.61963
3.60622
3.59339
3.58115
3.56953
3.55854
3.5482
3.53851
3.5295
3.52116
3.5135
3.50653
3.50024
3.49464
3.48974
3.48552
3.482
3.47921
3.47718
3.47604
3.9019
3.88828
3.87381
3.85861
3.84275
3.82634
3.80945
3.7922
3.77467
3.75697
3.73918
3.7214
3.70371
3.68621
3.66899
3.65209
3.63558
3.61949
3.60387
3.58877
3.57423
3.56027
3.54693
3.53423
3.52218
3.51082
3.50014
3.49016
3.48088
3.47232
3.46447
3.45733
3.45092
3.44522
3.44024
3.43598
3.43245
3.42967
3.42768
3.4266
3.88053
3.86615
3.85089
3.83485
3.81812
3.80079
3.78297
3.76476
3.74626
3.72757
3.70879
3.69002
3.67136
3.6529
3.63474
3.61694
3.59956
3.58265
3.56626
3.55043
3.5352
3.52061
3.50669
3.49345
3.48092
3.4691
3.45803
3.44769
3.4381
3.42926
3.42118
3.41384
3.40726
3.40143
3.39635
3.39203
3.38847
3.38569
3.38375
3.38273
3.86596
3.85078
3.83467
3.81772
3.80005
3.78175
3.76292
3.74367
3.72412
3.70437
3.68452
3.66469
3.64498
3.62549
3.6063
3.58752
3.5692
3.5514
3.53416
3.51753
3.50155
3.48626
3.47169
3.45785
3.44477
3.43246
3.42093
3.41019
3.40023
3.39108
3.38271
3.37514
3.36837
3.36238
3.35718
3.35278
3.34917
3.3464
3.34449
3.34352
3.85725
3.84121
3.82417
3.80626
3.78758
3.76822
3.74831
3.72796
3.70728
3.68639
3.66541
3.64445
3.62361
3.60301
3.58275
3.56292
3.54359
3.52483
3.50667
3.48919
3.4724
3.45635
3.44108
3.42659
3.41291
3.40005
3.38803
3.37684
3.36648
3.35697
3.3483
3.34047
3.33346
3.3273
3.32196
3.31746
3.3138
3.31102
3.30914
3.3082
3.85364
3.83666
3.81863
3.79967
3.77989
3.75941
3.73833
3.71679
3.69491
3.67281
3.65061
3.62845
3.60642
3.58465
3.56325
3.54231
3.52192
3.50213
3.48302
3.46462
3.44698
3.43013
3.41411
3.39893
3.38461
3.37117
3.35861
3.34694
3.33616
3.32627
3.31726
3.30913
3.30189
3.29552
3.29003
3.28542
3.2817
3.2789
3.27703
3.27614
3.85452
3.83652
3.81741
3.79732
3.77636
3.75465
3.73232
3.7095
3.68632
3.66292
3.63943
3.61599
3.5927
3.5697
3.54709
3.52499
3.50348
3.48263
3.46251
3.44315
3.42462
3.40693
3.39013
3.37422
3.35924
3.34519
3.33207
3.3199
3.30866
3.29836
3.289
3.28057
3.27307
3.26648
3.26083
3.2561
3.2523
3.24947
3.24762
3.24674
3.85946
3.84034
3.82004
3.7987
3.77644
3.7534
3.72971
3.70551
3.68094
3.65615
3.63128
3.60647
3.58185
3.55755
3.53368
3.51036
3.48768
3.46572
3.44455
3.4242
3.40474
3.38618
3.36857
3.35192
3.33625
3.32157
3.30788
3.29518
3.28347
3.27276
3.26303
3.25428
3.2465
3.2397
3.23386
3.229
3.22513
3.22226
3.22041
3.21955
3.86814
3.84778
3.82617
3.80345
3.77976
3.75525
3.73007
3.70437
3.6783
3.65201
3.62567
3.5994
3.57337
3.54769
3.5225
3.4979
3.474
3.45089
3.42863
3.40726
3.38684
3.3674
3.34896
3.33154
3.31517
3.29984
3.28556
3.27233
3.26014
3.249
3.2389
3.22982
3.22177
3.21473
3.20872
3.20373
3.19977
3.19685
3.19498
3.19413
3.88039
3.85864
3.83555
3.8113
3.78603
3.7599
3.73308
3.70573
3.67802
3.65012
3.62218
3.59436
3.56682
3.53969
3.5131
3.48717
3.46201
3.4377
3.41431
3.3919
3.3705
3.35014
3.33086
3.31267
3.29558
3.2796
3.26472
3.25095
3.23829
3.22672
3.21623
3.20683
3.19849
3.19123
3.18503
3.1799
3.17585
3.17288
3.17099
3.17014
3.89614
3.87282
3.84808
3.82209
3.79504
3.76711
3.73847
3.70931
3.67981
3.65014
3.62048
3.59099
3.56184
3.53318
3.50512
3.4778
3.45132
3.42577
3.40123
3.37773
3.35533
3.33405
3.31391
3.29494
3.27713
3.26049
3.24502
3.23071
3.21757
3.20557
3.1947
3.18497
3.17636
3.16886
3.16248
3.15721
3.15306
3.15004
3.14812
3.14726
3.91545
3.89035
3.86372
3.83577
3.80671
3.77674
3.74607
3.71489
3.68341
3.65182
3.62029
3.58901
3.55814
3.52783
3.49823
3.46945
3.4416
3.41477
3.38903
3.36443
3.34101
3.31879
3.2978
3.27803
3.2595
3.24221
3.22615
3.21131
3.19769
3.18526
3.17403
3.16398
3.15509
3.14737
3.1408
3.1354
3.13115
3.12806
3.12611
3.12523
3.93847
3.91133
3.88254
3.85235
3.821
3.78872
3.75576
3.72233
3.68866
3.65494
3.62137
3.58814
3.55543
3.52338
3.49214
3.46183
3.43256
3.4044
3.37744
3.35172
3.32726
3.3041
3.28224
3.26168
3.24244
3.2245
3.20785
3.19249
3.1784
3.16556
3.15397
3.1436
3.13445
3.1265
3.11976
3.11422
3.10987
3.10671
3.10472
3.10382
3.9655
3.936
3.90472
3.87194
3.83795
3.80305
3.76748
3.73152
3.6954
3.65933
3.62353
3.58819
3.55348
3.51958
3.48661
3.45469
3.42394
3.39442
3.3662
3.33933
3.31383
3.28971
3.26699
3.24565
3.2257
3.20712
3.1899
3.17403
3.15948
3.14624
3.1343
3.12363
3.11422
3.10606
3.09915
3.09347
3.08903
3.0858
3.08376
3.08283
3.99694
3.96471
3.93053
3.89474
3.8577
3.81976
3.78122
3.74238
3.70351
3.66483
3.62657
3.58893
3.55209
3.5162
3.4814
3.4478
3.41551
3.38458
3.35508
3.32704
3.30049
3.27542
3.25183
3.22972
3.20908
3.18988
3.1721
3.15573
3.14075
3.12712
3.11484
3.10388
3.09423
3.08587
3.07879
3.07299
3.06844
3.06515
3.06306
3.0621
4.03339
3.99796
3.96037
3.92104
3.88043
3.83896
3.79699
3.75487
3.7129
3.67131
3.63034
3.59019
3.55103
3.51302
3.47629
3.44094
3.40705
3.37468
3.34387
3.31466
3.28704
3.26102
3.23659
3.21372
3.19239
3.17259
3.15428
3.13743
3.12203
3.10804
3.09544
3.0842
3.07432
3.06577
3.05854
3.05261
3.04797
3.04461
3.04247
3.04148
4.07563
4.03641
3.99477
3.95125
3.90642
3.8608
3.81485
3.76897
3.72347
3.67862
3.63466
3.59177
3.55012
3.50985
3.47108
3.43389
3.39836
3.36451
3.33239
3.30199
3.27331
3.24636
3.22109
3.19748
3.17549
3.15511
3.13628
3.11898
3.10318
3.08885
3.07595
3.06446
3.05437
3.04564
3.03826
3.03221
3.02749
3.02405
3.02187
3.02085
4.12469
4.08094
4.03443
3.98588
3.93601
3.88549
3.83488
3.78463
3.73512
3.68662
3.63934
3.59346
3.54913
3.50647
3.46556
3.42647
3.38924
3.35389
3.32044
3.28886
3.25914
3.23126
3.20518
3.18085
3.15824
3.13729
3.11798
3.10026
3.08409
3.06943
3.05626
3.04454
3.03425
3.02535
3.01784
3.01169
3.00688
3.00338
3.00114
3.00009
4.18194
4.1327
4.08027
4.0256
3.96965
3.91326
3.85714
3.80184
3.74774
3.69512
3.64417
3.59505
3.54784
3.50264
3.4595
3.41844
3.37949
3.34264
3.30786
3.27512
3.24438
3.2156
3.18873
3.16372
3.1405
3.11904
3.09927
3.08116
3.06464
3.0497
3.03627
3.02434
3.01387
3.00483
2.9972
2.99095
2.98606
2.9825
2.98021
2.97913
4.24918
4.1932
4.13346
4.07125
4.00786
3.94439
3.88173
3.82051
3.76115
3.7039
3.64891
3.59626
3.54599
3.49813
3.45268
3.40962
3.36893
3.33057
3.29448
3.26061
3.22888
3.19925
3.17163
3.14597
3.1222
3.10025
3.08006
3.06158
3.04476
3.02955
3.0159
3.00378
2.99315
2.98398
2.97625
2.96991
2.96495
2.96133
2.959
2.9579
4.32887
4.26443
4.19549
4.12385
4.05125
3.97916
3.90867
3.84052
3.77512
3.71268
3.65324
3.59679
3.54328
3.49266
3.44484
3.39977
3.35735
3.31751
3.28016
3.2452
3.21254
3.18209
3.15378
3.12751
3.10323
3.08083
3.06027
3.04147
3.02437
3.00892
2.99508
2.9828
2.97203
2.96275
2.95493
2.94852
2.9435
2.93983
2.93746
2.93632
4.42425
4.34903
4.26828
4.18464
4.1005
4.0178
3.9379
3.86161
3.78931
3.72105
3.65676
3.59627
3.53938
3.48592
3.43573
3.38866
3.34456
3.3033
3.26474
3.22875
3.19523
3.16404
3.13509
3.10828
3.08352
3.06073
3.03983
3.02075
3.00341
2.98777
2.97376
2.96134
2.95046
2.94109
2.93318
2.92671
2.92164
2.91793
2.91552
2.91436
4.53974
4.45052
4.35428
4.25507
4.15628
4.06045
3.96921
3.88339
3.80321
3.72853
3.659
3.59425
3.53389
3.47758
3.42505
3.37604
3.33034
3.28774
3.24807
3.21115
3.17684
3.14499
3.11548
3.08819
3.06303
3.0399
3.01871
2.99938
2.98184
2.96603
2.95189
2.93936
2.92839
2.91895
2.91098
2.90446
2.89935
2.8956
2.89316
2.89198
4.68158
4.57362
4.45658
4.3368
4.2192
4.10704
4.00214
3.90521
3.81615
3.73443
3.65936
3.59021
3.52636
3.46727
3.4125
3.36167
3.31449
3.27069
3.23002
3.19229
3.1573
3.12488
3.0949
3.06722
3.04171
3.01829
2.99686
2.97734
2.95964
2.9437
2.92945
2.91683
2.9058
2.8963
2.8883
2.88174
2.8766
2.87282
2.87036
2.86916
4.85878
4.72465