/*--------------------------------*- C++ -*----------------------------------*\
  =========                 |
  \\      /  F ield         | OpenFOAM: The Open Source CFD Toolbox
   \\    /   O peration     | Website:  https://openfoam.org
    \\  /    A nd           | Version:  6
     \\/     M anipulation  |
\*---------------------------------------------------------------------------*/
FoamFile
{
    version     2.0;
    format      ascii;
    class       volScalarField;
    location    "10";
    object      neg;
}
// * * * * * * * * * * * * * * * * * * * * * * * * * * * * * * * * * * * * * //

dimensions      [0 -3 1 0 0 1 0];

internalField   nonuniform List<scalar> 
8800
(
8.77362e-05
8.77064e-05
8.77397e-05
8.7659e-05
8.76351e-05
8.76085e-05
8.75787e-05
8.75454e-05
8.75089e-05
8.74693e-05
8.74268e-05
8.73816e-05
8.7334e-05
8.72842e-05
8.72324e-05
8.71789e-05
8.71238e-05
8.70675e-05
8.70102e-05
8.69521e-05
8.68933e-05
8.68342e-05
8.67749e-05
8.67157e-05
8.66568e-05
8.65984e-05
8.65407e-05
8.6484e-05
8.64283e-05
8.63741e-05
8.63216e-05
8.62733e-05
8.6256e-05
8.62558e-05
8.62606e-05
8.62694e-05
8.62815e-05
8.62962e-05
8.63129e-05
8.63311e-05
0.000169217
0.000170493
0.000170525
0.000170322
0.00017017
0.000170063
0.000169979
0.000169903
0.000169828
0.000169751
0.00016967
0.000169585
0.000169496
0.000169404
0.000169309
0.000169212
0.000169114
0.000169016
0.000168918
0.000168822
0.000168727
0.000168635
0.000168547
0.000168461
0.00016838
0.000168303
0.00016823
0.000168162
0.000168098
0.000168042
0.000168005
0.000168043
0.000168145
0.000168263
0.000168392
0.000168529
0.000168671
0.000168815
0.000168961
0.000169104
0.000245353
0.000246564
0.00024661
0.00024637
0.000246173
0.000246025
0.000245906
0.000245799
0.000245696
0.000245591
0.000245482
0.000245369
0.000245254
0.000245137
0.00024502
0.000244905
0.000244794
0.00024469
0.000244593
0.000244507
0.000244431
0.000244368
0.000244318
0.000244281
0.000244258
0.000244249
0.000244252
0.00024427
0.000244307
0.000244383
0.000244572
0.000244899
0.000245245
0.000245615
0.000246
0.000246392
0.000246787
0.00024718
0.000247565
0.00024794
0.000315364
0.000315462
0.00031526
0.000315009
0.000314831
0.000314695
0.000314577
0.000314467
0.000314356
0.000314244
0.00031413
0.000314015
0.000313902
0.000313794
0.000313695
0.000313607
0.000313536
0.000313485
0.000313456
0.000313454
0.000313479
0.000313533
0.000313617
0.000313731
0.000313874
0.000314045
0.000314245
0.00031448
0.000314772
0.000315184
0.000315867
0.000316549
0.00031726
0.000317995
0.000318742
0.00031949
0.000320231
0.000320958
0.000321665
0.000322345
0.000378448
0.000377018
0.000376367
0.000376041
0.000375882
0.000375779
0.000375691
0.000375605
0.000375517
0.000375429
0.000375344
0.000375265
0.000375197
0.000375146
0.000375119
0.00037512
0.000375157
0.000375233
0.000375354
0.000375522
0.00037574
0.00037601
0.000376331
0.000376701
0.000377121
0.00037759
0.000378114
0.000378716
0.000379458
0.000380504
0.000381611
0.000382737
0.00038389
0.000385058
0.000386228
0.000387384
0.000388519
0.000389621
0.000390685
0.000391704
0.000434453
0.000431295
0.00043008
0.000429622
0.000429464
0.000429402
0.000429363
0.000429328
0.000429295
0.000429267
0.00042925
0.000429252
0.00042928
0.000429343
0.000429448
0.000429605
0.00042982
0.000430099
0.000430448
0.00043087
0.000431367
0.00043194
0.000432587
0.000433307
0.000434099
0.000434968
0.000435931
0.000437037
0.000438404
0.000440036
0.00044162
0.000443224
0.000444844
0.000446464
0.000448066
0.000449636
0.000451163
0.000452637
0.000454051
0.000455398
0.000483601
0.000478634
0.000476802
0.000476177
0.000476008
0.00047599
0.000476016
0.000476056
0.000476107
0.000476175
0.000476267
0.000476394
0.000476567
0.000476796
0.000477091
0.000477462
0.000477916
0.000478462
0.000479103
0.000479843
0.000480683
0.000481623
0.00048266
0.000483794
0.000485025
0.000486365
0.000487846
0.000489546
0.000491625
0.000493703
0.000495762
0.000497831
0.000499897
0.000501941
0.000503944
0.000505891
0.00050777
0.000509573
0.000511292
0.000512924
0.000526312
0.000519577
0.00051712
0.000516313
0.000516127
0.000516156
0.000516259
0.000516394
0.000516556
0.000516749
0.000516985
0.000517275
0.000517633
0.000518069
0.000518597
0.000519225
0.000519962
0.000520815
0.000521789
0.000522886
0.000524105
0.000525446
0.000526905
0.000528482
0.000530183
0.000532025
0.000534061
0.000536398
0.000539003
0.000541508
0.000543999
0.000546483
0.000548941
0.000551351
0.000553693
0.000555951
0.000558116
0.00056018
0.000562138
0.000563989
0.000563126
0.000554775
0.00055172
0.000550728
0.000550521
0.0005506
0.000550789
0.000551033
0.000551323
0.000551664
0.000552067
0.000552547
0.000553115
0.000553786
0.00055457
0.000555479
0.00055652
0.000557699
0.00055902
0.000560484
0.000562089
0.000563833
0.000565714
0.000567731
0.000569893
0.00057223
0.000574806
0.00057775
0.000580689
0.000583566
0.000586421
0.000589248
0.000592023
0.000594723
0.000597326
0.000599819
0.000602191
0.000604438
0.000606559
0.000608556
0.000594643
0.000584906
0.000581305
0.000580134
0.000579903
0.000580033
0.000580311
0.000580672
0.000581101
0.000581601
0.000582185
0.000582865
0.000583656
0.00058457
0.000585619
0.000586812
0.000588156
0.000589656
0.000591315
0.000593131
0.000595103
0.000597227
0.0005995
0.000601923
0.000604509
0.000607288
0.000610324
0.000613708
0.000616936
0.000620111
0.000623251
0.000626341
0.000629353
0.000632263
0.000635048
0.000637697
0.000640199
0.000642555
0.000644765
0.000646836
0.000621468
0.000610627
0.000606547
0.000605206
0.000604951
0.000605128
0.000605496
0.000605974
0.000606544
0.000607205
0.000607971
0.000608852
0.000609862
0.000611014
0.000612317
0.000613781
0.00061541
0.000617209
0.000619177
0.000621313
0.000623614
0.000626074
0.000628691
0.000631466
0.000634416
0.000637583
0.000641069
0.00064464
0.000648089
0.000651485
0.000654832
0.000658107
0.000661281
0.000664327
0.000667225
0.000669961
0.000672529
0.00067493
0.00067717
0.000679257
0.000644183
0.000632541
0.00062806
0.000626563
0.000626279
0.000626498
0.000626949
0.000627541
0.000628245
0.000629062
0.000630001
0.000631072
0.000632288
0.00063366
0.000635197
0.000636905
0.000638789
0.00064085
0.000643088
0.000645498
0.000648077
0.000650818
0.000653719
0.000656781
0.000660023
0.000663488
0.000667274
0.00067097
0.000674572
0.000678118
0.000681601
0.000684992
0.000688264
0.000691388
0.000694343
0.000697116
0.000699701
0.000702103
0.000704328
0.000706391
0.000663325
0.000651184
0.000646386
0.000644748
0.000644432
0.000644684
0.00064521
0.000645903
0.000646732
0.000647691
0.000648787
0.000650031
0.000651431
0.000652997
0.000654738
0.000656657
0.000658757
0.000661038
0.000663498
0.000666132
0.000668933
0.000671896
0.000675016
0.000678297
0.000681752
0.000685424
0.000689383
0.000693162
0.000696857
0.000700491
0.000704049
0.000707504
0.000710825
0.000713985
0.00071696
0.000719736
0.000722311
0.00072469
0.000726879
0.000728896
0.000679373
0.000667023
0.000661993
0.000660231
0.000659878
0.000660153
0.00066074
0.000661523
0.000662461
0.000663545
0.000664779
0.00066617
0.000667728
0.00066946
0.00067137
0.000673462
0.000675738
0.000678194
0.000680828
0.000683633
0.000686602
0.000689728
0.000693007
0.000696439
0.000700046
0.000703918
0.000707878
0.000711694
0.000715433
0.000719106
0.000722696
0.000726175
0.000729514
0.000732686
0.00073566
0.000738426
0.00074098
0.000743337
0.000745488
0.00074745
0.000692749
0.000680459
0.00067528
0.000673411
0.000673018
0.000673304
0.00067394
0.000674796
0.000675824
0.000677013
0.000678362
0.000679878
0.000681565
0.000683429
0.000685475
0.000687703
0.000690113
0.000692701
0.000695463
0.000698391
0.000701477
0.000704714
0.000708095
0.000711622
0.000715316
0.000719295
0.000723224
0.000727041
0.000730787
0.000734466
0.000738058
0.000741537
0.000744879
0.000748074
0.000751038
0.000753787
0.00075632
0.000758646
0.000760762
0.000762684
0.000703809
0.000691836
0.000686588
0.000684628
0.000684191
0.000684478
0.000685147
0.000686058
0.000687159
0.000688432
0.000689873
0.000691486
0.000693275
0.000695242
0.00069739
0.000699718
0.000702225
0.000704905
0.000707753
0.000710762
0.000713921
0.000717223
0.000720661
0.000724234
0.00072796
0.000731971
0.00073586
0.000739653
0.000743404
0.000747081
0.000750656
0.000754117
0.000757443
0.000760619
0.000763581
0.00076633
0.000768862
0.000771182
0.000773291
0.000775199
0.000712879
0.000701419
0.0006962
0.00069417
0.000693683
0.000693958
0.000694645
0.000695596
0.000696751
0.000698087
0.000699598
0.000701284
0.000703147
0.000705189
0.000707409
0.000709805
0.000712376
0.000715114
0.000718014
0.000721067
0.000724264
0.000727595
0.000731054
0.000734665
0.000738463
0.000742389
0.000746226
0.00074998
0.000753691
0.000757333
0.000760882
0.000764323
0.000767637
0.000770805
0.00077378
0.000776552
0.000779112
0.00078146
0.000783594
0.000785522
0.000720244
0.000709449
0.000704342
0.000702274
0.000701738
0.000701989
0.000702678
0.000703651
0.000704841
0.000706221
0.000707781
0.00070952
0.000711434
0.000713526
0.000715794
0.000718235
0.000720844
0.000723616
0.000726543
0.000729616
0.000732827
0.000736165
0.000739623
0.000743217
0.000747023
0.000750858
0.000754634
0.000758344
0.000762009
0.000765614
0.000769138
0.000772566
0.000775879
0.000779058
0.000782068
0.00078489
0.00078751
0.000789922
0.00079212
0.000794107
0.000726146
0.000716127
0.000711205
0.000709131
0.000708554
0.000708775
0.000709454
0.000710434
0.000711644
0.000713051
0.000714642
0.000716412
0.000718358
0.00072048
0.000722774
0.000725236
0.000727862
0.000730644
0.000733576
0.000736647
0.00073985
0.000743174
0.000746613
0.000750187
0.000753939
0.000757692
0.000761407
0.000765072
0.000768697
0.00077227
0.000775778
0.000779204
0.000782533
0.000785746
0.000788815
0.000791718
0.000794434
0.000796949
0.000799251
0.000801335
0.000730794
0.000721624
0.00071695
0.000714903
0.000714294
0.000714482
0.000715143
0.000716118
0.000717333
0.000718751
0.000720357
0.000722143
0.000724104
0.000726238
0.00072854
0.000731005
0.000733629
0.000736405
0.000739324
0.000742378
0.000745559
0.000748857
0.000752264
0.000755835
0.000759488
0.000763163
0.000766822
0.000770447
0.00077404
0.000777595
0.0007811
0.000784542
0.000787909
0.000791182
0.000794339
0.000797353
0.0008002
0.000802857
0.000805305
0.000807529
0.000734369
0.000726086
0.00072171
0.000719721
0.000719093
0.00071925
0.000719886
0.000720847
0.000722055
0.000723472
0.00072508
0.000726867
0.000728828
0.000730959
0.000733255
0.00073571
0.00073832
0.000741076
0.000743972
0.000746999
0.000750149
0.000753413
0.000756784
0.000760316
0.000763894
0.000767502
0.000771113
0.000774708
0.000778284
0.000781837
0.000785357
0.000788837
0.000792265
0.000795627
0.000798902
0.000802062
0.000805077
0.000807916
0.00081055
0.000812955
0.000737024
0.000729638
0.000725598
0.000723697
0.000723066
0.000723194
0.000723802
0.000724741
0.000725934
0.000727339
0.000728937
0.000730715
0.000732665
0.000734782
0.000737061
0.000739496
0.000742082
0.000744811
0.000747676
0.00075067
0.000753786
0.000757014
0.000760374
0.000763833
0.000767349
0.000770904
0.000774478
0.000778056
0.000781631
0.0007852
0.000788758
0.0007923
0.000795817
0.0007993
0.000802726
0.000806067
0.000809289
0.000812351
0.000815213
0.000817841
0.000738889
0.000732386
0.000728709
0.000726923
0.000726304
0.000726411
0.000726991
0.000727903
0.000729073
0.000730459
0.000732039
0.000733798
0.000735729
0.000737824
0.000740078
0.000742486
0.000745042
0.000747739
0.000750571
0.00075353
0.000756611
0.000759805
0.000763137
0.000766542
0.00077001
0.000773527
0.00077708
0.000780656
0.000784248
0.000787854
0.000791473
0.000795103
0.000798742
0.000802378
0.000805993
0.000809556
0.000813026
0.000816353
0.000819487
0.000822381
0.000740075
0.000734423
0.000731125
0.000729475
0.000728886
0.00072898
0.000729533
0.000730418
0.000731561
0.000732922
0.000734477
0.000736212
0.000738116
0.000740184
0.000742409
0.000744785
0.000747308
0.000749971
0.000752769
0.000755695
0.000758743
0.000761921
0.000765206
0.00076857
0.000772006
0.000775503
0.000779052
0.000782642
0.000786269
0.000789935
0.00079364
0.000797389
0.000801181
0.00080501
0.000808856
0.000812686
0.00081645
0.00082009
0.000823542
0.000826748
0.000740677
0.00073583
0.000732916
0.000731421
0.000730877
0.000730968
0.000731499
0.000732356
0.000733471
0.000734803
0.000736329
0.000738035
0.000739909
0.000741946
0.000744138
0.000746482
0.000748971
0.0007516
0.000754365
0.000757261
0.000760281
0.000763436
0.000766686
0.000770024
0.000773443
0.000776937
0.000780497
0.000784119
0.000787802
0.000791549
0.000795368
0.000799267
0.000803252
0.000807317
0.000811442
0.000815589
0.000819702
0.000823708
0.000827533
0.000831099
0.000740776
0.000736675
0.000734142
0.000732816
0.000732331
0.000732429
0.000732945
0.000733777
0.000734863
0.000736165
0.00073766
0.000739334
0.000741177
0.000743181
0.00074534
0.00074765
0.000750106
0.000752704
0.000755439
0.000758308
0.000761313
0.000764436
0.000767662
0.000770987
0.000774404
0.000777909
0.000781499
0.00078517
0.000788928
0.000792781
0.000796742
0.000800827
0.000805046
0.000809396
0.000813857
0.000818383
0.000822907
0.000827344
0.000831601
0.000835587
0.000740438
0.00073702
0.000734857
0.000733708
0.000733294
0.000733411
0.000733918
0.000734729
0.000735788
0.000737061
0.000738525
0.000740168
0.000741977
0.000743948
0.000746075
0.000748352
0.000750777
0.000753346
0.000756056
0.000758905
0.000761888
0.000764989
0.000768203
0.000771526
0.000774954
0.000778485
0.000782118
0.000785856
0.000789708
0.000793691
0.000797825
0.000802134
0.000806635
0.000811329
0.000816191
0.000821169
0.000826181
0.000831125
0.000835888
0.000840361
0.000739722
0.000736918
0.000735106
0.000734138
0.000733807
0.000733951
0.000734458
0.000735254
0.000736289
0.000737535
0.00073897
0.000740581
0.000742359
0.000744298
0.000746393
0.000748641
0.000751038
0.000753582
0.000756271
0.000759101
0.000762062
0.000765149
0.000768359
0.00077169
0.00077514
0.000778709
0.000782399
0.000786219
0.000790185
0.000794322
0.000798661
0.000803237
0.000808074
0.000813178
0.000818521
0.000824038
0.000829631
0.000835175
0.000840535
0.000845577
0.000738674
0.000736416
0.000734933
0.000734146
0.000733904
0.000734085
0.000734599
0.000735385
0.000736402
0.000737623
0.000739031
0.000740614
0.000742362
0.000744272
0.000746338
0.000748559
0.000750931
0.000753454
0.000756123
0.000758931
0.000761877
0.000764957
0.000768171
0.000771518
0.000774997
0.000778612
0.00078237
0.000786286
0.000790384
0.0007947
0.000799278
0.000804167
0.000809403
0.000814994
0.000820911
0.000827073
0.000833361
0.000839622
0.000845691
0.000851407
0.000737336
0.000735555
0.000734375
0.000733762
0.000733615
0.00073384
0.000734369
0.000735152
0.000736156
0.000737357
0.000738742
0.000740299
0.000742021
0.000743904
0.000745945
0.000748141
0.000750493
0.000752997
0.000755641
0.00075843
0.000761365
0.000764442
0.000767664
0.000771031
0.000774544
0.000778212
0.000782046
0.000786068
0.000790314
0.000794832
0.000799686
0.000804939
0.000810643
0.000816814
0.000823415
0.000830352
0.000837474
0.000844595
0.000851514
0.000858258
0.00073574
0.00073437
0.000733464
0.000733019
0.000732967
0.000733242
0.000733793
0.000734579
0.000735575
0.000736762
0.000738127
0.000739663
0.000741362
0.000743222
0.000745241
0.000747417
0.00074975
0.000752223
0.000754846
0.000757621
0.000760546
0.000763623
0.000766853
0.00077024
0.00077379
0.000777513
0.000781427
0.000785564
0.000789971
0.000794715
0.000799881
0.000805554
0.000811805
0.00081866
0.000826079
0.000833944
0.000842072
0.000850233
0.000858313
0.00086616
0.000733916
0.000732895
0.000732232
0.000731943
0.000731986
0.000732315
0.000732892
0.000733688
0.000734682
0.00073586
0.000737211
0.000738729
0.000740409
0.00074225
0.00074425
0.000746409
0.000748707
0.000751155
0.000753757
0.000756515
0.00075943
0.000762505
0.000765742
0.000769148
0.000772732
0.000776508
0.000780504
0.00078476
0.00078934
0.000794331
0.000799845
0.000805996
0.000812882
0.000820542
0.000828932
0.000837912
0.000847257
0.000856676
0.000866295
0.000875428
0.000731885
0.000731157
0.000730706
0.00073056
0.000730695
0.00073108
0.000731689
0.000732499
0.000733497
0.00073467
0.000736011
0.000737516
0.000739182
0.000741007
0.00074299
0.00074511
0.000747377
0.0007498
0.000752381
0.00075512
0.000758021
0.000761088
0.000764326
0.000767746
0.000771358
0.000775184
0.000779258
0.000783635
0.000788395
0.000793652
0.000799548
0.000806238
0.000813851
0.00082245
0.000831992
0.000842308
0.000853123
0.000864434
0.000875694
0.000886399
0.000729668
0.00072918
0.000728912
0.000728895
0.000729117
0.000729558
0.000730201
0.00073103
0.000732035
0.000733209
0.000734545
0.000736041
0.000737694
0.000739505
0.000741444
0.000743528
0.000745767
0.000748162
0.000750715
0.000753429
0.000756309
0.000759361
0.000762594
0.000766018
0.000769651
0.00077352
0.000777667
0.000782162
0.000787104
0.00079264
0.00079895
0.000806235
0.000814673
0.000824358
0.000835252
0.00084716
0.00085988
0.000873348
0.000886736
0.00089946
0.00072728
0.000726988
0.000726875
0.000726971
0.000727273
0.000727768
0.000728446
0.000729298
0.000730314
0.000731491
0.000732826
0.000734315
0.000735958
0.000737713
0.000739615
0.000741668
0.000743873
0.000746233
0.000748751
0.000751431
0.000754282
0.00075731
0.000760527
0.000763947
0.000767591
0.000771492
0.000775704
0.000780308
0.000785432
0.000791252
0.000797998
0.000805931
0.000815287
0.00082621
0.000838678
0.000852468
0.000867705
0.000883682
0.000899747
0.000915789
0.000724736
0.000724599
0.000724615
0.000724809
0.000725183
0.000725731
0.000726444
0.000727319
0.000728349
0.000729532
0.000730865
0.000732336
0.000733915
0.00073564
0.000737509
0.000739523
0.000741686
0.000744001
0.000746474
0.000749112
0.000751923
0.000754917
0.000758107
0.000761511
0.000765155
0.000769078
0.000773342
0.000778045
0.00078334
0.000789442
0.000796637
0.000805254
0.000815611
0.00082792
0.000842194
0.000858417
0.000876422
0.000895653
0.000916387
0.000935132
0.000722047
0.000722033
0.000722154
0.000722432
0.000722869
0.000723464
0.000724211
0.000725108
0.000726152
0.00072734
0.00072864
0.000730052
0.000731601
0.000733288
0.000735113
0.000737078
0.000739189
0.000741449
0.000743868
0.000746452
0.000749213
0.000752163
0.000755317
0.000758695
0.000762327
0.000766257
0.000770559
0.000775346
0.000780796
0.000787166
0.000794804
0.000804123
0.000815539
0.000829361
0.000845658
0.000864692
0.000885901
0.000910924
0.000935571
0.000957969
0.000719224
0.000719304
0.00071951
0.000719857
0.00072035
0.000720986
0.000721764
0.000722681
0.000723734
0.000724866
0.000726119
0.0007275
0.000729008
0.000730646
0.000732414
0.000734318
0.000736364
0.00073856
0.000740913
0.000743435
0.000746137
0.000749034
0.000752142
0.000755484
0.000759093
0.000763018
0.000767341
0.000772191
0.000777772
0.000784384
0.00079244
0.000802447
0.00081494
0.000830362
0.000849015
0.000870967
0.000897436
0.000927673
0.000957347
0.000984848
0.000716274
0.000716427
0.0007167
0.000717105
0.000717643
0.000718314
0.000719116
0.000720026
0.000721011
0.000722118
0.000723338
0.000724672
0.000726124
0.000727696
0.000729394
0.000731225
0.000733195
0.000735315
0.000737595
0.000740047
0.000742683
0.00074552
0.000748575
0.000751873
0.000755449
0.000759356
0.000763682
0.000768572
0.000774252
0.000781065
0.000789489
0.00080013
0.000813661
0.000830684
0.000851652
0.000876619
0.000909619
0.000945105
0.000981357
0.00101644
0.000713207
0.000713414
0.00071374
0.00071419
0.000714764
0.000715461
0.000716237
0.000717094
0.000718055
0.00071912
0.000720285
0.000721554
0.000722932
0.000724423
0.000726037
0.000727781
0.000729666
0.000731703
0.000733903
0.00073628
0.000738847
0.00074162
0.000744618
0.000747866
0.0007514
0.000755276
0.000759588
0.000764491
0.000770233
0.000777194
0.000785913
0.000797092
0.000811548
0.000830024
0.000853073
0.000881657
0.000919719
0.000961293
0.00100582
0.00105266
8.63503e-05
8.63699e-05
8.63893e-05
8.64081e-05
8.64255e-05
8.64406e-05
8.64524e-05
8.64584e-05
8.64527e-05
8.64111e-05
8.64111e-05
8.64527e-05
8.64584e-05
8.64524e-05
8.64406e-05
8.64255e-05
8.64081e-05
8.63893e-05
8.63698e-05
8.63502e-05
0.000169245
0.00016938
0.000169507
0.000169626
0.000169733
0.000169827
0.000169904
0.000169962
0.000169991
0.000169975
0.000169975
0.000169991
0.000169962
0.000169904
0.000169827
0.000169733
0.000169626
0.000169507
0.00016938
0.000169245
0.000248301
0.000248643
0.000248964
0.000249259
0.000249524
0.000249756
0.000249949
0.000250099
0.000250198
0.000250233
0.000250233
0.000250198
0.000250099
0.000249949
0.000249756
0.000249524
0.000249259
0.000248964
0.000248643
0.000248301
0.000322995
0.000323609
0.00032418
0.000324704
0.000325174
0.000325585
0.000325928
0.000326199
0.000326386
0.000326477
0.000326477
0.000326386
0.000326199
0.000325928
0.000325585
0.000325174
0.000324704
0.00032418
0.000323609
0.000322995
0.000392672
0.000393582
0.000394428
0.000395202
0.000395897
0.000396503
0.000397011
0.000397414
0.000397699
0.00039785
0.00039785
0.000397699
0.000397414
0.000397011
0.000396503
0.000395897
0.000395202
0.000394428
0.000393582
0.000392672
0.000456673
0.000457869
0.000458979
0.000459995
0.000460906
0.000461702
0.000462371
0.000462902
0.000463283
0.000463493
0.000463493
0.000463283
0.000462902
0.000462371
0.000461702
0.000460906
0.000459995
0.000458979
0.000457869
0.000456672
0.000514464
0.000515906
0.000517243
0.000518467
0.000519566
0.000520527
0.000521337
0.000521982
0.000522446
0.000522707
0.000522707
0.000522446
0.000521982
0.000521337
0.000520527
0.000519566
0.000518467
0.000517243
0.000515905
0.000514463
0.000565731
0.00056736
0.000568871
0.000570254
0.000571499
0.00057259
0.000573511
0.000574245
0.000574774
0.000575074
0.000575073
0.000574774
0.000574245
0.000573511
0.00057259
0.000571499
0.000570254
0.00056887
0.00056736
0.000565731
0.000610429
0.000612179
0.000613802
0.000615291
0.000616633
0.000617812
0.00061881
0.000619607
0.000620182
0.000620507
0.000620507
0.000620182
0.000619607
0.00061881
0.000617812
0.000616633
0.00061529
0.000613801
0.000612178
0.000610428
0.000648774
0.000650581
0.000652259
0.000653801
0.000655194
0.000656423
0.000657466
0.0006583
0.000658902
0.000659241
0.000659241
0.000658902
0.0006583
0.000657466
0.000656423
0.000655194
0.0006538
0.000652259
0.000650581
0.000648773
0.000681203
0.000683016
0.000684699
0.00068625
0.000687656
0.0006889
0.00068996
0.00069081
0.000691423
0.000691767
0.000691767
0.000691423
0.00069081
0.00068996
0.0006889
0.000687656
0.000686249
0.000684699
0.000683016
0.000681203
0.000708307
0.000710088
0.000711742
0.000713268
0.000714657
0.000715892
0.000716948
0.000717798
0.000718411
0.000718753
0.000718753
0.000718411
0.000717798
0.000716948
0.000715892
0.000714657
0.000713268
0.000711742
0.000710088
0.000708307
0.000730759
0.000732487
0.00073409
0.000735571
0.000736924
0.000738132
0.000739171
0.00074001
0.000740617
0.000740954
0.000740954
0.000740617
0.00074001
0.000739171
0.000738132
0.000736924
0.000735571
0.000734089
0.000732486
0.000730759
0.000749253
0.000750919
0.000752462
0.000753889
0.000755196
0.000756369
0.000757382
0.000758206
0.000758804
0.000759137
0.000759137
0.000758804
0.000758206
0.000757382
0.000756368
0.000755196
0.000753889
0.000752462
0.000750919
0.000749253
0.000764441
0.000766055
0.000767545
0.000768921
0.000770182
0.000771318
0.000772305
0.000773112
0.000773702
0.000774032
0.000774032
0.000773702
0.000773112
0.000772304
0.000771317
0.000770182
0.00076892
0.000767545
0.000766055
0.000764441
0.000776933
0.000778516
0.000779968
0.000781303
0.000782527
0.00078363
0.000784593
0.000785385
0.000785969
0.000786298
0.000786298
0.000785969
0.000785385
0.000784593
0.00078363
0.000782526
0.000781303
0.000779967
0.000778515
0.000776933
0.000787265
0.000788844
0.000790281
0.000791594
0.000792793
0.000793872
0.000794817
0.000795599
0.000796179
0.000796509
0.000796509
0.000796179
0.000795599
0.000794817
0.000793872
0.000792792
0.000791594
0.000790281
0.000788843
0.000787264
0.000795894
0.000797502
0.000798953
0.000800267
0.000801457
0.000802525
0.00080346
0.000804236
0.000804816
0.00080515
0.00080515
0.000804816
0.000804236
0.00080346
0.000802525
0.000801457
0.000800267
0.000798953
0.000797502
0.000795894
0.000803207
0.000804881
0.000806377
0.000807717
0.000808918
0.00080999
0.000810924
0.000811701
0.000812284
0.000812625
0.000812624
0.000812284
0.000811701
0.000810924
0.000809989
0.000808918
0.000807717
0.000806377
0.000804881
0.000803207
0.000809525
0.000811303
0.000812877
0.000814271
0.000815506
0.000816596
0.000817542
0.000818326
0.000818917
0.000819265
0.000819265
0.000818917
0.000818326
0.000817541
0.000816596
0.000815506
0.000814271
0.000812877
0.000811302
0.000809525
0.000815117
0.000817036
0.000818724
0.000820202
0.000821493
0.00082262
0.000823587
0.000824387
0.000824988
0.000825346
0.000825346
0.000824988
0.000824386
0.000823587
0.000822619
0.000821493
0.000820201
0.000818723
0.000817036
0.000815116
0.00082021
0.000822309
0.000824145
0.000825736
0.000827109
0.000828289
0.000829291
0.000830114
0.000830731
0.0008311
0.000831099
0.000830731
0.000830113
0.000829291
0.000828289
0.000827109
0.000825736
0.000824144
0.000822308
0.000820209
0.000824998
0.000827317
0.000829336
0.000831072
0.000832551
0.000833805
0.000834853
0.000835738
0.000836417
0.000836824
0.000836823
0.000836417
0.000835738
0.000834853
0.000833804
0.00083255
0.000831071
0.000829336
0.000827316
0.000824997
0.000829656
0.000832234
0.000834473
0.000836385
0.000838008
0.000839447
0.000840657
0.000841617
0.000842324
0.000842748
0.000842748
0.000842324
0.000841616
0.000840656
0.000839447
0.000838007
0.000836384
0.000834473
0.000832233
0.000829655
0.000834345
0.000837225
0.000839721
0.000841909
0.000843811
0.000845379
0.000846668
0.000847682
0.000848421
0.000848861
0.000848861
0.000848421
0.000847682
0.000846668
0.000845379
0.00084381
0.000841909
0.00083972
0.000837224
0.000834344
0.000839222
0.00084245
0.000845339
0.000847848
0.000849944
0.000851657
0.00085304
0.000854114
0.000854886
0.000855343
0.000855343
0.000854886
0.000854114
0.00085304
0.000851656
0.000849943
0.000847847
0.000845338
0.000842449
0.000839221
0.000844446
0.000848168
0.000851474
0.000854273
0.00085659
0.000858465
0.000859955
0.000861096
0.000861903
0.000862374
0.000862374
0.000861902
0.000861095
0.000859955
0.000858464
0.000856589
0.000854272
0.000851473
0.000848167
0.000844445
0.00085025
0.000854543
0.00085826
0.000861384
0.000863948
0.000866002
0.000867611
0.000868822
0.000869665
0.000870149
0.000870149
0.000869664
0.000868822
0.00086761
0.000866001
0.000863947
0.000861383
0.000858258
0.000854542
0.000850248
0.000856872
0.000861734
0.000865916
0.000869406
0.000872243
0.000874491
0.000876227
0.000877512
0.000878389
0.000878885
0.000878885
0.000878389
0.000877511
0.000876226
0.000874491
0.000872242
0.000869405
0.000865914
0.000861732
0.00085687
0.000864479
0.000869991
0.0008747
0.000878598
0.000881734
0.000884188
0.000886054
0.000887413
0.000888324
0.000888829
0.000888829
0.000888324
0.000887413
0.000886053
0.000884187
0.000881733
0.000878597
0.000874699
0.000869989
0.000864477
0.000873318
0.000879601
0.000884917
0.000889268
0.000892722
0.000895387
0.000897381
0.000898809
0.000899749
0.00090026
0.00090026
0.000899749
0.000898809
0.000897381
0.000895386
0.000892721
0.000889267
0.000884916
0.0008796
0.000873316
0.000883716
0.000890918
0.000896931
0.000901777
0.000905559
0.000908427
0.000910536
0.000912021
0.000912979
0.00091349
0.00091349
0.000912978
0.000912021
0.000910536
0.000908426
0.000905558
0.000901776
0.000896929
0.000890916
0.000883714
0.000896072
0.000904373
0.0009112
0.000916601
0.000920649
0.000923666
0.000925855
0.000927375
0.000928342
0.000928851
0.000928851
0.000928342
0.000927374
0.000925855
0.000923666
0.000920648
0.0009166
0.000911198
0.000904371
0.000896069
0.000911039
0.000920689
0.00092822
0.000934032
0.000938331
0.00094147
0.000943707
0.000945235
0.000946195
0.000946694
0.000946694
0.000946195
0.000945235
0.000943706
0.00094147
0.000938331
0.000934031
0.000928218
0.000920687
0.000911037
0.000929215
0.000940057
0.000948363
0.000954574
0.000959059
0.00096225
0.000964474
0.000965966
0.000966888
0.000967363
0.000967363
0.000966888
0.000965966
0.000964474
0.00096225
0.000959059
0.000954573
0.000948362
0.000940055
0.000929213
0.000950842
0.000963146
0.000972243
0.000978752
0.000983283
0.000986399
0.000988512
0.000989898
0.000990742
0.000991172
0.000991172
0.000990742
0.000989898
0.000988511
0.000986399
0.000983282
0.000978751
0.000972241
0.000963145
0.00095084
0.000976731
0.000990771
0.00100054
0.00100709
0.00101141
0.00101425
0.00101611
0.0010173
0.00101801
0.00101837
0.00101837
0.00101801
0.0010173
0.00101611
0.00101425
0.00101141
0.00100709
0.00100054
0.00099077
0.000976729
0.00100799
0.00102396
0.00103396
0.00104002
0.00104372
0.00104601
0.00104745
0.00104833
0.00104885
0.0010491
0.0010491
0.00104885
0.00104833
0.00104745
0.00104601
0.00104372
0.00104002
0.00103396
0.00102396
0.00100798
0.00104642
0.00106407
0.00107313
0.00107777
0.00108028
0.00108171
0.00108252
0.00108298
0.00108323
0.00108336
0.00108336
0.00108323
0.00108298
0.00108252
0.00108171
0.00108028
0.00107777
0.00107313
0.00106406
0.00104641
0.00109585
0.00111262
0.00111795
0.00111991
0.00112071
0.00112098
0.001121
0.00112092
0.00112085
0.00112085
0.00112085
0.00112085
0.00112092
0.001121
0.00112098
0.00112071
0.00111991
0.00111795
0.00111262
0.00109584
8.63311e-05
8.63129e-05
8.62962e-05
8.62815e-05
8.62694e-05
8.62605e-05
8.62557e-05
8.6256e-05
8.62733e-05
8.63215e-05
8.63741e-05
8.64283e-05
8.64839e-05
8.65407e-05
8.65984e-05
8.66568e-05
8.67157e-05
8.67749e-05
8.68342e-05
8.68933e-05
8.6952e-05
8.70102e-05
8.70675e-05
8.71238e-05
8.71788e-05
8.72324e-05
8.72842e-05
8.7334e-05
8.73816e-05
8.74268e-05
8.74693e-05
8.75089e-05
8.75454e-05
8.75786e-05
8.76085e-05
8.76351e-05
8.76589e-05
8.77397e-05
8.77064e-05
8.77356e-05
0.000169104
0.000168961
0.000168815
0.000168671
0.000168529
0.000168392
0.000168263
0.000168145
0.000168043
0.000168005
0.000168042
0.000168098
0.000168162
0.00016823
0.000168303
0.00016838
0.000168461
0.000168547
0.000168635
0.000168727
0.000168822
0.000168918
0.000169016
0.000169114
0.000169212
0.000169309
0.000169404
0.000169496
0.000169585
0.00016967
0.000169751
0.000169828