/*--------------------------------*- C++ -*----------------------------------*\
  =========                 |
  \\      /  F ield         | OpenFOAM: The Open Source CFD Toolbox
   \\    /   O peration     | Website:  https://openfoam.org
    \\  /    A nd           | Version:  6
     \\/     M anipulation  |
\*---------------------------------------------------------------------------*/
FoamFile
{
    version     2.0;
    format      ascii;
    class       volScalarField;
    location    "10";
    object      p;
}
// * * * * * * * * * * * * * * * * * * * * * * * * * * * * * * * * * * * * * //

dimensions      [0 2 -2 0 0 0 0];

internalField   nonuniform List<scalar> 
8800
(
1.01319e-09
3.83225e-07
6.36791e-07
7.62076e-07
8.38816e-07
9.00521e-07
9.58946e-07
1.01908e-06
1.08329e-06
1.15279e-06
1.22828e-06
1.31029e-06
1.39934e-06
1.49602e-06
1.60098e-06
1.71494e-06
1.83872e-06
1.97318e-06
2.11922e-06
2.27773e-06
2.44957e-06
2.63551e-06
2.83623e-06
3.05225e-06
3.28391e-06
3.53135e-06
3.79451e-06
4.07311e-06
4.3667e-06
4.67466e-06
4.99623e-06
5.33072e-06
5.67654e-06
6.03072e-06
6.39038e-06
6.7525e-06
7.11366e-06
7.47013e-06
7.81795e-06
8.15306e-06
-1.63396e-05
-1.65553e-05
-1.66523e-05
-1.66788e-05
-1.66908e-05
-1.67009e-05
-1.67108e-05
-1.67208e-05
-1.67306e-05
-1.67396e-05
-1.67473e-05
-1.6753e-05
-1.67559e-05
-1.67551e-05
-1.67498e-05
-1.67389e-05
-1.67212e-05
-1.66954e-05
-1.66604e-05
-1.66148e-05
-1.65573e-05
-1.64867e-05
-1.64018e-05
-1.63016e-05
-1.61853e-05
-1.60522e-05
-1.59018e-05
-1.57338e-05
-1.5548e-05
-1.53446e-05
-1.51237e-05
-1.48869e-05
-1.46355e-05
-1.43707e-05
-1.40947e-05
-1.38101e-05
-1.352e-05
-1.32276e-05
-1.29365e-05
-1.26502e-05
-2.87202e-05
-2.88573e-05
-2.89305e-05
-2.89698e-05
-2.90048e-05
-2.90402e-05
-2.90769e-05
-2.91159e-05
-2.91574e-05
-2.92011e-05
-2.92466e-05
-2.92932e-05
-2.93398e-05
-2.93857e-05
-2.94295e-05
-2.94701e-05
-2.95061e-05
-2.95361e-05
-2.95587e-05
-2.95724e-05
-2.95757e-05
-2.95673e-05
-2.95459e-05
-2.95102e-05
-2.94593e-05
-2.93922e-05
-2.93084e-05
-2.92074e-05
-2.9089e-05
-2.89531e-05
-2.88003e-05
-2.86311e-05
-2.84469e-05
-2.82492e-05
-2.80399e-05
-2.78217e-05
-2.75973e-05
-2.73698e-05
-2.71424e-05
-2.69184e-05
-3.81467e-05
-3.82039e-05
-3.82407e-05
-3.8279e-05
-3.83267e-05
-3.83817e-05
-3.84431e-05
-3.85109e-05
-3.85847e-05
-3.8664e-05
-3.87482e-05
-3.88363e-05
-3.89273e-05
-3.90201e-05
-3.91133e-05
-3.92055e-05
-3.92951e-05
-3.93805e-05
-3.94601e-05
-3.95321e-05
-3.95949e-05
-3.96468e-05
-3.96863e-05
-3.9712e-05
-3.97225e-05
-3.97167e-05
-3.96939e-05
-3.96534e-05
-3.95945e-05
-3.95167e-05
-3.94192e-05
-3.93027e-05
-3.91684e-05
-3.90184e-05
-3.88551e-05
-3.8681e-05
-3.84988e-05
-3.83117e-05
-3.81228e-05
-3.79352e-05
-4.60208e-05
-4.60869e-05
-4.61364e-05
-4.61896e-05
-4.62554e-05
-4.63328e-05
-4.64207e-05
-4.65186e-05
-4.66259e-05
-4.67418e-05
-4.68652e-05
-4.69952e-05
-4.71304e-05
-4.72695e-05
-4.74108e-05
-4.75528e-05
-4.76935e-05
-4.78312e-05
-4.79639e-05
-4.80896e-05
-4.82065e-05
-4.83125e-05
-4.84059e-05
-4.84851e-05
-4.85484e-05
-4.85946e-05
-4.86227e-05
-4.86318e-05
-4.86207e-05
-4.85876e-05
-4.85313e-05
-4.84529e-05
-4.83546e-05
-4.82385e-05
-4.81072e-05
-4.79633e-05
-4.78097e-05
-4.76493e-05
-4.74852e-05
-4.73205e-05
-5.2639e-05
-5.27222e-05
-5.27859e-05
-5.28518e-05
-5.29319e-05
-5.30266e-05
-5.31351e-05
-5.32568e-05
-5.33909e-05
-5.35362e-05
-5.36916e-05
-5.38556e-05
-5.40268e-05
-5.42035e-05
-5.43839e-05
-5.45661e-05
-5.47479e-05
-5.49274e-05
-5.51021e-05
-5.52701e-05
-5.5429e-05
-5.55768e-05
-5.57115e-05
-5.58311e-05
-5.5934e-05
-5.60187e-05
-5.60842e-05
-5.61291e-05
-5.61511e-05
-5.61476e-05
-5.61189e-05
-5.60668e-05
-5.59934e-05
-5.5901e-05
-5.57923e-05
-5.567e-05
-5.5537e-05
-5.53963e-05
-5.5251e-05
-5.51039e-05
-5.8177e-05
-5.82656e-05
-5.83359e-05
-5.84103e-05
-5.85015e-05
-5.861e-05
-5.87351e-05
-5.88762e-05
-5.90322e-05
-5.92017e-05
-5.93834e-05
-5.95755e-05
-5.97763e-05
-5.99839e-05
-6.01962e-05
-6.0411e-05
-6.06259e-05
-6.08386e-05
-6.10466e-05
-6.12476e-05
-6.14391e-05
-6.16188e-05
-6.17844e-05
-6.19341e-05
-6.20659e-05
-6.21783e-05
-6.22701e-05
-6.23392e-05
-6.23816e-05
-6.23958e-05
-6.23839e-05
-6.23475e-05
-6.2289e-05
-6.22106e-05
-6.21152e-05
-6.20058e-05
-6.18854e-05
-6.17569e-05
-6.16234e-05
-6.14876e-05
-6.28265e-05
-6.29151e-05
-6.29891e-05
-6.30702e-05
-6.31705e-05
-6.32904e-05
-6.34293e-05
-6.35863e-05
-6.37603e-05
-6.39497e-05
-6.41528e-05
-6.43677e-05
-6.45923e-05
-6.48245e-05
-6.50619e-05
-6.53021e-05
-6.55424e-05
-6.57804e-05
-6.60133e-05
-6.62385e-05
-6.64534e-05
-6.66557e-05
-6.68428e-05
-6.70128e-05
-6.71636e-05
-6.72938e-05
-6.74016e-05
-6.74835e-05
-6.75355e-05
-6.75582e-05
-6.7554e-05
-6.75247e-05
-6.74726e-05
-6.74002e-05
-6.73107e-05
-6.72071e-05
-6.70926e-05
-6.69701e-05
-6.68426e-05
-6.67128e-05
-6.67489e-05
-6.68347e-05
-6.69109e-05
-6.69972e-05
-6.71046e-05
-6.72334e-05
-6.73829e-05
-6.75523e-05
-6.77402e-05
-6.79447e-05
-6.8164e-05
-6.83959e-05
-6.86382e-05
-6.88884e-05
-6.9144e-05
-6.94021e-05
-6.96602e-05
-6.99154e-05
-7.01648e-05
-7.04057e-05
-7.06355e-05
-7.08514e-05
-7.10512e-05
-7.12325e-05
-7.13934e-05
-7.15323e-05
-7.1647e-05
-7.17322e-05
-7.17855e-05
-7.18096e-05
-7.18063e-05
-7.17774e-05
-7.17253e-05
-7.16531e-05
-7.15638e-05
-7.14608e-05
-7.13473e-05
-7.12264e-05
-7.11009e-05
-7.09734e-05
-7.00701e-05
-7.01508e-05
-7.02274e-05
-7.03171e-05
-7.04294e-05
-7.05645e-05
-7.07217e-05
-7.08998e-05
-7.10973e-05
-7.13124e-05
-7.15428e-05
-7.17863e-05
-7.20403e-05
-7.23023e-05
-7.25693e-05
-7.28386e-05
-7.31072e-05
-7.33722e-05
-7.36307e-05
-7.38798e-05
-7.41167e-05
-7.43388e-05
-7.45436e-05
-7.47287e-05
-7.48924e-05
-7.50328e-05
-7.51466e-05
-7.52284e-05
-7.52777e-05
-7.52979e-05
-7.52904e-05
-7.5257e-05
-7.52006e-05
-7.51241e-05
-7.50312e-05
-7.49251e-05
-7.48094e-05
-7.4687e-05
-7.45607e-05
-7.44331e-05
-7.289e-05
-7.29633e-05
-7.30387e-05
-7.313e-05
-7.32452e-05
-7.33842e-05
-7.3546e-05
-7.37295e-05
-7.39329e-05
-7.41542e-05
-7.43911e-05
-7.46411e-05
-7.49014e-05
-7.51693e-05
-7.54419e-05
-7.57162e-05
-7.59891e-05
-7.62577e-05
-7.65189e-05
-7.67698e-05
-7.70075e-05
-7.72295e-05
-7.74333e-05
-7.76165e-05
-7.77774e-05
-7.79139e-05
-7.80206e-05
-7.8094e-05
-7.81362e-05
-7.81491e-05
-7.81341e-05
-7.80932e-05
-7.80295e-05
-7.79462e-05
-7.78471e-05
-7.77358e-05
-7.76157e-05
-7.74899e-05
-7.73611e-05
-7.72317e-05
-7.52882e-05
-7.53526e-05
-7.54251e-05
-7.55165e-05
-7.56327e-05
-7.57732e-05
-7.5937e-05
-7.61227e-05
-7.63286e-05
-7.65523e-05
-7.67914e-05
-7.70433e-05
-7.73053e-05
-7.75743e-05
-7.78473e-05
-7.81214e-05
-7.83933e-05
-7.86602e-05
-7.89188e-05
-7.91664e-05
-7.94e-05
-7.96172e-05
-7.98152e-05
-7.99921e-05
-8.01459e-05
-8.02742e-05
-8.03707e-05
-8.04337e-05
-8.04664e-05
-8.04698e-05
-8.04454e-05
-8.03955e-05
-8.03231e-05
-8.02317e-05
-8.01252e-05
-8.00074e-05
-7.98819e-05
-7.97517e-05
-7.96194e-05
-7.94873e-05
-7.73284e-05
-7.73826e-05
-7.74512e-05
-7.75412e-05
-7.76565e-05
-7.77964e-05
-7.79598e-05
-7.81451e-05
-7.83503e-05
-7.8573e-05
-7.88108e-05
-7.90608e-05
-7.93203e-05
-7.95862e-05
-7.98555e-05
-8.01251e-05
-8.03919e-05
-8.06528e-05
-8.09048e-05
-8.11452e-05
-8.1371e-05
-8.15798e-05
-8.1769e-05
-8.19365e-05
-8.20805e-05
-8.21976e-05
-8.22821e-05
-8.23339e-05
-8.23561e-05
-8.23493e-05
-8.2315e-05
-8.22557e-05
-8.21744e-05
-8.20745e-05
-8.19605e-05
-8.18363e-05
-8.17053e-05
-8.15703e-05
-8.14341e-05
-8.12989e-05
-7.9062e-05
-7.91052e-05
-7.91687e-05
-7.9256e-05
-7.93689e-05
-7.95065e-05
-7.96674e-05
-7.98498e-05
-8.00517e-05
-8.02706e-05
-8.0504e-05
-8.0749e-05
-8.10028e-05
-8.12622e-05
-8.15244e-05
-8.17862e-05
-8.20446e-05
-8.22965e-05
-8.2539e-05
-8.27693e-05
-8.29848e-05
-8.31829e-05
-8.33612e-05
-8.35178e-05
-8.36507e-05
-8.37544e-05
-8.38257e-05
-8.38667e-05
-8.38785e-05
-8.38618e-05
-8.38183e-05
-8.37505e-05
-8.36612e-05
-8.35538e-05
-8.3433e-05
-8.33029e-05
-8.3167e-05
-8.30277e-05
-8.28875e-05
-8.27489e-05
-8.05309e-05
-8.05627e-05
-8.06201e-05
-8.07035e-05
-8.08126e-05
-8.09463e-05
-8.11029e-05
-8.12806e-05
-8.1477e-05
-8.16898e-05
-8.19164e-05
-8.21538e-05
-8.23993e-05
-8.26498e-05
-8.29024e-05
-8.31539e-05
-8.34015e-05
-8.36422e-05
-8.38732e-05
-8.40917e-05
-8.42953e-05
-8.44813e-05
-8.46475e-05
-8.47919e-05
-8.49126e-05
-8.50031e-05
-8.5062e-05
-8.50928e-05
-8.50952e-05
-8.50697e-05
-8.50185e-05
-8.4944e-05
-8.4849e-05
-8.47364e-05
-8.461e-05
-8.44747e-05
-8.4334e-05
-8.41907e-05
-8.4047e-05
-8.39049e-05
-8.17695e-05
-8.17904e-05
-8.18405e-05
-8.19187e-05
-8.20229e-05
-8.21514e-05
-8.23024e-05
-8.24736e-05
-8.2663e-05
-8.28679e-05
-8.30857e-05
-8.33137e-05
-8.3549e-05
-8.37887e-05
-8.40298e-05
-8.42694e-05
-8.45047e-05
-8.47327e-05
-8.49509e-05
-8.51566e-05
-8.53474e-05
-8.55208e-05
-8.56747e-05
-8.58067e-05
-8.59144e-05
-8.59923e-05
-8.60406e-05
-8.6063e-05
-8.60586e-05
-8.60271e-05
-8.59702e-05
-8.58905e-05
-8.5791e-05
-8.56747e-05
-8.55446e-05
-8.54055e-05
-8.5261e-05
-8.51141e-05
-8.49671e-05
-8.48219e-05
-8.28063e-05
-8.28172e-05
-8.286e-05
-8.29317e-05
-8.30296e-05
-8.31517e-05
-8.32958e-05
-8.34595e-05
-8.36404e-05
-8.3836e-05
-8.40438e-05
-8.4261e-05
-8.44848e-05
-8.47123e-05
-8.49408e-05
-8.51674e-05
-8.53894e-05
-8.56041e-05
-8.58089e-05
-8.60013e-05
-8.61791e-05
-8.63401e-05
-8.64826e-05
-8.66041e-05
-8.66991e-05
-8.67651e-05
-8.68052e-05
-8.68207e-05
-8.68111e-05
-8.67757e-05
-8.67154e-05
-8.66327e-05
-8.65303e-05
-8.64115e-05
-8.62797e-05
-8.61388e-05
-8.59924e-05
-8.58434e-05
-8.5694e-05
-8.5546e-05
-8.3666e-05
-8.36674e-05
-8.3703e-05
-8.37679e-05
-8.38586e-05
-8.39731e-05
-8.41091e-05
-8.4264e-05
-8.44354e-05
-8.46208e-05
-8.48176e-05
-8.50231e-05
-8.52347e-05
-8.54495e-05
-8.56649e-05
-8.58782e-05
-8.60867e-05
-8.6288e-05
-8.64795e-05
-8.6659e-05
-8.68243e-05
-8.69734e-05
-8.71046e-05
-8.72158e-05
-8.73001e-05
-8.73568e-05
-8.73902e-05
-8.74004e-05
-8.73865e-05
-8.73485e-05
-8.7287e-05
-8.7204e-05
-8.71019e-05
-8.69837e-05
-8.68527e-05
-8.67124e-05
-8.65661e-05
-8.64164e-05
-8.62655e-05
-8.61148e-05
-8.43701e-05
-8.43628e-05
-8.4391e-05
-8.44489e-05
-8.45318e-05
-8.46379e-05
-8.4765e-05
-8.49103e-05
-8.50715e-05
-8.5246e-05
-8.54312e-05
-8.56246e-05
-8.58235e-05
-8.60253e-05
-8.62274e-05
-8.64273e-05
-8.66225e-05
-8.68106e-05
-8.69893e-05
-8.71564e-05
-8.73098e-05
-8.74478e-05
-8.75685e-05
-8.76684e-05
-8.7743e-05
-8.7793e-05
-8.78217e-05
-8.78287e-05
-8.78132e-05
-8.77752e-05
-8.77153e-05
-8.7635e-05
-8.75364e-05
-8.74219e-05
-8.72945e-05
-8.71573e-05
-8.7013e-05
-8.6864e-05
-8.67121e-05
-8.65588e-05
-8.49374e-05
-8.49221e-05
-8.49431e-05
-8.49936e-05
-8.50684e-05
-8.51657e-05
-8.52833e-05
-8.54186e-05
-8.5569e-05
-8.57321e-05
-8.59053e-05
-8.60862e-05
-8.62722e-05
-8.64609e-05
-8.66497e-05
-8.68363e-05
-8.70183e-05
-8.71934e-05
-8.73596e-05
-8.75148e-05
-8.7657e-05
-8.77847e-05
-8.78961e-05
-8.79857e-05
-8.80519e-05
-8.80977e-05
-8.8124e-05
-8.81302e-05
-8.81157e-05
-8.80806e-05
-8.80253e-05
-8.79508e-05
-8.78588e-05
-8.77512e-05
-8.76303e-05
-8.74986e-05
-8.73581e-05
-8.72109e-05
-8.70586e-05
-8.69024e-05
-8.53843e-05
-8.53619e-05
-8.53758e-05
-8.54188e-05
-8.54852e-05
-8.55733e-05
-8.56811e-05
-8.58058e-05
-8.59451e-05
-8.60965e-05
-8.62575e-05
-8.64258e-05
-8.65988e-05
-8.67744e-05
-8.695e-05
-8.71235e-05
-8.72926e-05
-8.74553e-05
-8.76096e-05
-8.77535e-05
-8.78854e-05
-8.80036e-05
-8.81056e-05
-8.81874e-05
-8.82483e-05
-8.82916e-05
-8.83175e-05
-8.83252e-05
-8.83143e-05
-8.82849e-05
-8.82371e-05
-8.81717e-05
-8.80895e-05
-8.7992e-05
-8.78805e-05
-8.77565e-05
-8.76216e-05
-8.74771e-05
-8.73242e-05
-8.71643e-05
-8.57252e-05
-8.56967e-05
-8.57038e-05
-8.57392e-05
-8.5797e-05
-8.58757e-05
-8.59732e-05
-8.60872e-05
-8.62151e-05
-8.63546e-05
-8.65033e-05
-8.66589e-05
-8.6819e-05
-8.69816e-05
-8.71443e-05
-8.73051e-05
-8.74619e-05
-8.76128e-05
-8.77558e-05
-8.78893e-05
-8.80119e-05
-8.81219e-05
-8.82151e-05
-8.829e-05
-8.83483e-05
-8.83914e-05
-8.84188e-05
-8.84303e-05
-8.84256e-05
-8.84047e-05
-8.83674e-05
-8.83141e-05
-8.82451e-05
-8.81606e-05
-8.80612e-05
-8.79471e-05
-8.7819e-05
-8.76773e-05
-8.75231e-05
-8.73577e-05
-8.59731e-05
-8.59395e-05
-8.59403e-05
-8.59681e-05
-8.60172e-05
-8.60862e-05
-8.61733e-05
-8.62762e-05
-8.63925e-05
-8.65199e-05
-8.66562e-05
-8.67992e-05
-8.69467e-05
-8.70966e-05
-8.72468e-05
-8.73954e-05
-8.75404e-05
-8.768e-05
-8.78126e-05
-8.79365e-05
-8.80504e-05
-8.81523e-05
-8.82389e-05
-8.83095e-05
-8.83668e-05
-8.84111e-05
-8.8442e-05
-8.84594e-05
-8.84632e-05
-8.84533e-05
-8.84295e-05
-8.83914e-05
-8.83386e-05
-8.82701e-05
-8.8185e-05
-8.80824e-05
-8.79614e-05
-8.78219e-05
-8.76642e-05
-8.74899e-05
-8.61394e-05
-8.61018e-05
-8.60967e-05
-8.61172e-05
-8.61576e-05
-8.62168e-05
-8.62933e-05
-8.63849e-05
-8.64895e-05
-8.66048e-05
-8.67288e-05
-8.68593e-05
-8.69942e-05
-8.71317e-05
-8.72698e-05
-8.74067e-05
-8.75405e-05
-8.76696e-05
-8.77925e-05
-8.79077e-05
-8.8014e-05
-8.81081e-05
-8.8189e-05
-8.82576e-05
-8.83154e-05
-8.83623e-05
-8.83983e-05
-8.84235e-05
-8.84379e-05
-8.84415e-05
-8.84338e-05
-8.84138e-05
-8.83799e-05
-8.83299e-05
-8.82609e-05
-8.81703e-05
-8.80557e-05
-8.79157e-05
-8.77504e-05
-8.75617e-05
-8.62344e-05
-8.61938e-05
-8.61835e-05
-8.6197e-05
-8.62289e-05
-8.62784e-05
-8.63442e-05
-8.64245e-05
-8.65172e-05
-8.66203e-05
-8.67319e-05
-8.685e-05
-8.69727e-05
-8.70981e-05
-8.72245e-05
-8.73501e-05
-8.74733e-05
-8.75925e-05
-8.77064e-05
-8.78134e-05
-8.79121e-05
-8.80003e-05
-8.80773e-05
-8.81452e-05
-8.82044e-05
-8.8255e-05
-8.82974e-05
-8.83318e-05
-8.83587e-05
-8.83778e-05
-8.83885e-05
-8.8389e-05
-8.83763e-05
-8.83464e-05
-8.82943e-05
-8.82149e-05
-8.81038e-05
-8.79584e-05
-8.77782e-05
-8.75659e-05
-8.62676e-05
-8.62249e-05
-8.621e-05
-8.62169e-05
-8.62405e-05
-8.62804e-05
-8.63356e-05
-8.64045e-05
-8.64854e-05
-8.65763e-05
-8.66756e-05
-8.67814e-05
-8.6892e-05
-8.70057e-05
-8.71208e-05
-8.72356e-05
-8.73487e-05
-8.74586e-05
-8.7564e-05
-8.76637e-05
-8.77551e-05
-8.7838e-05
-8.7913e-05
-8.79809e-05
-8.80422e-05
-8.80973e-05
-8.81468e-05
-8.81916e-05
-8.82322e-05
-8.82685e-05
-8.82993e-05
-8.83221e-05
-8.83321e-05
-8.8323e-05
-8.82868e-05
-8.82155e-05
-8.81022e-05
-8.79425e-05
-8.77358e-05
-8.74856e-05
-8.62472e-05
-8.62033e-05
-8.61845e-05
-8.61854e-05
-8.62011e-05
-8.62317e-05
-8.62764e-05
-8.6334e-05
-8.64029e-05
-8.64817e-05
-8.65688e-05
-8.66625e-05
-8.67612e-05
-8.68633e-05
-8.69674e-05
-8.70719e-05
-8.71754e-05
-8.72764e-05
-8.73737e-05
-8.74658e-05
-8.75517e-05
-8.76308e-05
-8.77042e-05
-8.77724e-05
-8.7836e-05
-8.78958e-05
-8.79529e-05
-8.80085e-05
-8.80635e-05
-8.81178e-05
-8.81699e-05
-8.82158e-05
-8.82488e-05
-8.82594e-05
-8.82358e-05
-8.81662e-05
-8.80406e-05
-8.78527e-05
-8.76015e-05
-8.72922e-05
-8.61807e-05
-8.61365e-05
-8.61144e-05
-8.61098e-05
-8.61181e-05
-8.61397e-05
-8.61742e-05
-8.62206e-05
-8.62778e-05
-8.63445e-05
-8.64194e-05
-8.6501e-05
-8.6588e-05
-8.6679e-05
-8.67724e-05
-8.68669e-05
-8.69611e-05
-8.70537e-05
-8.71434e-05
-8.72286e-05
-8.73093e-05
-8.73855e-05
-8.74576e-05
-8.75262e-05
-8.75919e-05
-8.76562e-05
-8.77206e-05
-8.77868e-05
-8.78561e-05
-8.79285e-05
-8.80017e-05
-8.80704e-05
-8.81249e-05
-8.81515e-05
-8.81339e-05
-8.80552e-05
-8.79013e-05
-8.76637e-05
-8.73413e-05
-8.69417e-05
-8.60748e-05
-8.60309e-05
-8.60063e-05
-8.59968e-05
-8.59983e-05
-8.60114e-05
-8.60359e-05
-8.60714e-05
-8.6117e-05
-8.61717e-05
-8.62345e-05
-8.63043e-05
-8.63798e-05
-8.64597e-05
-8.65427e-05
-8.66275e-05
-8.67128e-05
-8.67972e-05
-8.68793e-05
-8.69592e-05
-8.70356e-05
-8.71089e-05
-8.71793e-05
-8.72476e-05
-8.73148e-05
-8.73828e-05
-8.74536e-05
-8.75295e-05
-8.7612e-05
-8.77014e-05
-8.77944e-05
-8.78835e-05
-8.79554e-05
-8.79913e-05
-8.79682e-05
-8.7863e-05
-8.76566e-05
-8.73377e-05
-8.69064e-05
-8.63735e-05
-8.59355e-05
-8.58926e-05
-8.58661e-05
-8.58523e-05
-8.58476e-05
-8.58526e-05
-8.58676e-05
-8.58924e-05
-8.59266e-05
-8.59695e-05
-8.60204e-05
-8.60785e-05
-8.61425e-05
-8.62116e-05
-8.62845e-05
-8.63598e-05
-8.64362e-05
-8.65125e-05
-8.65887e-05
-8.66634e-05
-8.67358e-05
-8.6806e-05
-8.68743e-05
-8.69415e-05
-8.70091e-05
-8.70793e-05
-8.71548e-05
-8.72383e-05
-8.73321e-05
-8.74358e-05
-8.75453e-05
-8.76502e-05
-8.77323e-05
-8.77657e-05
-8.77194e-05
-8.75617e-05
-8.72667e-05
-8.68199e-05
-8.62234e-05
-8.54913e-05
-8.57682e-05
-8.57267e-05
-8.5699e-05
-8.56815e-05
-8.56712e-05
-8.56687e-05
-8.56746e-05
-8.56891e-05
-8.57121e-05
-8.57434e-05
-8.57826e-05
-8.5829e-05
-8.58819e-05
-8.59403e-05
-8.60031e-05
-8.6069e-05
-8.61369e-05
-8.62066e-05
-8.62773e-05
-8.63471e-05
-8.64152e-05
-8.64817e-05
-8.65469e-05
-8.66118e-05
-8.66781e-05
-8.67484e-05
-8.68261e-05
-8.69145e-05
-8.70158e-05
-8.71296e-05
-8.725e-05
-8.73628e-05
-8.74435e-05
-8.7457e-05
-8.73613e-05
-8.71138e-05
-8.66795e-05
-8.60388e-05
-8.52001e-05
-8.41807e-05
-8.55775e-05
-8.55381e-05
-8.55095e-05
-8.5489e-05
-8.54736e-05
-8.54641e-05
-8.54614e-05
-8.54659e-05
-8.54781e-05
-8.5498e-05
-8.55255e-05
-8.55605e-05
-8.56023e-05
-8.56502e-05
-8.57031e-05
-8.57599e-05
-8.58208e-05
-8.58851e-05
-8.59502e-05
-8.60148e-05
-8.60782e-05
-8.61402e-05
-8.62011e-05
-8.6262e-05
-8.63249e-05
-8.63927e-05
-8.64692e-05
-8.65581e-05
-8.6662e-05
-8.67795e-05
-8.69024e-05
-8.70114e-05
-8.70737e-05
-8.70421e-05
-8.68602e-05
-8.64708e-05
-8.58288e-05
-8.49117e-05
-8.37155e-05
-8.23012e-05
-8.53679e-05
-8.53308e-05
-8.53019e-05
-8.52788e-05
-8.52588e-05
-8.52428e-05
-8.52319e-05
-8.52268e-05
-8.52284e-05
-8.52371e-05
-8.52533e-05
-8.5277e-05
-8.53079e-05
-8.53453e-05
-8.53885e-05
-8.54381e-05
-8.54936e-05
-8.5552e-05
-8.56114e-05
-8.56705e-05
-8.57286e-05
-8.57852e-05
-8.58404e-05
-8.58953e-05
-8.59521e-05
-8.6014e-05
-8.60851e-05
-8.61693e-05
-8.6269e-05
-8.63816e-05
-8.64953e-05
-8.65844e-05
-8.66049e-05
-8.64939e-05
-8.61751e-05
-8.55707e-05
-8.46206e-05
-8.33032e-05
-8.16171e-05
-7.96527e-05
-8.5143e-05
-8.51086e-05
-8.50798e-05
-8.50545e-05
-8.50303e-05
-8.50082e-05
-8.49894e-05
-8.49752e-05
-8.49664e-05
-8.49642e-05
-8.49691e-05
-8.49816e-05
-8.50016e-05
-8.50289e-05
-8.50648e-05
-8.5109e-05
-8.51585e-05
-8.52109e-05
-8.52645e-05
-8.5318e-05
-8.53702e-05
-8.54202e-05
-8.54681e-05
-8.55149e-05
-8.55627e-05
-8.56147e-05
-8.56753e-05
-8.57483e-05
-8.58354e-05
-8.5932e-05
-8.60217e-05
-8.60699e-05
-8.60184e-05
-8.57837e-05
-8.52628e-05
-8.43501e-05
-8.29761e-05
-8.10815e-05
-7.8709e-05
-7.59844e-05
-8.49066e-05
-8.48749e-05
-8.48465e-05
-8.48192e-05
-8.47911e-05
-8.47633e-05
-8.4737e-05
-8.47137e-05
-8.46949e-05
-8.46819e-05
-8.46756e-05
-8.46769e-05
-8.46866e-05
-8.47069e-05
-8.47375e-05
-8.47757e-05
-8.48189e-05
-8.48654e-05
-8.49134e-05
-8.49609e-05
-8.50064e-05
-8.50488e-05
-8.50878e-05
-8.5124e-05
-8.51594e-05
-8.51974e-05
-8.52418e-05
-8.52963e-05
-8.53612e-05
-8.54287e-05
-8.54762e-05
-8.5458e-05
-8.52974e-05
-8.48843e-05
-8.4081e-05
-8.275e-05
-8.07824e-05
-7.8119e-05
-7.47902e-05
-7.10315e-05
-8.46617e-05
-8.4633e-05
-8.46049e-05
-8.45759e-05
-8.45442e-05
-8.45107e-05
-8.44772e-05
-8.44451e-05
-8.44164e-05
-8.43925e-05
-8.43751e-05
-8.43667e-05
-8.43697e-05
-8.43847e-05
-8.4409e-05
-8.44407e-05
-8.44782e-05
-8.45192e-05
-8.45616e-05
-8.46029e-05
-8.46412e-05
-8.46749e-05
-8.47032e-05
-8.47264e-05
-8.47463e-05
-8.47656e-05
-8.47881e-05
-8.48162e-05
-8.48483e-05
-8.48722e-05
-8.48574e-05
-8.47439e-05
-8.44322e-05
-8.37764e-05
-8.25909e-05
-8.07126e-05
-7.79532e-05
-7.42684e-05
-6.96974e-05
-6.45823e-05
-8.44115e-05
-8.43857e-05
-8.43581e-05
-8.43273e-05
-8.42919e-05
-8.42531e-05
-8.42123e-05
-8.41715e-05
-8.41328e-05
-8.40984e-05
-8.40725e-05
-8.40577e-05
-8.40553e-05
-8.40635e-05
-8.40813e-05
-8.41074e-05
-8.41398e-05
-8.41759e-05
-8.4213e-05
-8.42482e-05
-8.42788e-05
-8.43027e-05
-8.43188e-05
-8.43268e-05
-8.4328e-05
-8.43246e-05
-8.43194e-05
-8.43136e-05
-8.43024e-05
-8.42683e-05
-8.41708e-05
-8.39325e-05
-8.34266e-05
-8.24677e-05
-8.08168e-05
-7.82126e-05
-7.44847e-05
-6.95137e-05
-6.34207e-05
-5.6345e-05
-8.4159e-05
-8.41358e-05
-8.41085e-05
-8.40759e-05
-8.40369e-05
-8.39926e-05
-8.39445e-05
-8.38948e-05
-8.38468e-05
-8.38051e-05
-8.37732e-05
-8.37525e-05
-8.37432e-05
-8.37451e-05
-8.37577e-05
-8.37794e-05
-8.38078e-05
-8.38398e-05
-8.38721e-05
-8.39012e-05
-8.39239e-05
-8.39375e-05
-8.39401e-05
-8.3931e-05
-8.39108e-05
-8.38811e-05
-8.38435e-05
-8.37971e-05
-8.37337e-05
-8.36293e-05
-8.34312e-05
-8.30423e-05
-8.23023e-05
-8.09764e-05
-7.87757e-05
-7.5301e-05
-7.05247e-05
-6.41243e-05
-5.62788e-05
-4.64462e-05
-8.3907e-05
-8.38861e-05
-8.38588e-05
-8.38242e-05
-8.37815e-05
-8.37315e-05
-8.36761e-05
-8.36189e-05
-8.35644e-05
-8.3517e-05
-8.34787e-05
-8.34513e-05
-8.3436e-05
-8.34333e-05
-8.34423e-05
-8.3461e-05
-8.34866e-05
-8.35156e-05
-8.35438e-05
-8.35673e-05
-8.35821e-05
-8.35849e-05
-8.35733e-05
-8.35458e-05
-8.35023e-05
-8.34437e-05
-8.33702e-05
-8.32789e-05
-8.31574e-05
-8.29745e-05
-8.26654e-05
-8.21126e-05
-8.11249e-05
-7.94212e-05
-7.66137e-05
-7.2249e-05
-6.63369e-05
-5.88555e-05
-4.95775e-05
-3.604e-05
-8.36582e-05
-8.3639e-05
-8.36114e-05
-8.35746e-05
-8.35278e-05
-8.34722e-05
-8.34109e-05
-8.33482e-05
-8.32883e-05
-8.32343e-05
-8.31895e-05
-8.31567e-05
-8.31374e-05
-8.31319e-05
-8.31391e-05
-8.31567e-05
-8.31812e-05
-8.32085e-05
-8.32338e-05
-8.32524e-05
-8.32598e-05
-8.32519e-05
-8.32257e-05
-8.31791e-05
-8.31115e-05
-8.30227e-05
-8.29118e-05
-8.27737e-05
-8.25921e-05
-8.23292e-05
-8.19086e-05
-8.11939e-05
-7.99674e-05
-7.79193e-05
-7.45706e-05
-6.94714e-05
-6.26438e-05
-5.44465e-05
-4.36783e-05
-2.25175e-05
8.47129e-06
8.76853e-06
9.04075e-06
9.28409e-06
9.49503e-06
9.6704e-06
9.80763e-06
9.90474e-06
9.96053e-06
9.97817e-06
9.97818e-06
9.96057e-06
9.90479e-06
9.8077e-06
9.67049e-06
9.49513e-06
9.28421e-06
9.04088e-06
8.76869e-06
8.47147e-06
-1.23726e-05
-1.21074e-05
-1.18584e-05
-1.16291e-05
-1.14231e-05
-1.12436e-05
-1.10933e-05
-1.09748e-05
-1.08905e-05
-1.08442e-05
-1.08442e-05
-1.08905e-05
-1.09748e-05
-1.10933e-05
-1.12435e-05
-1.14231e-05
-1.1629e-05
-1.18582e-05
-1.21073e-05
-1.23724e-05
-2.67014e-05
-2.64946e-05
-2.63015e-05
-2.61252e-05
-2.5969e-05
-2.58356e-05
-2.57275e-05
-2.56468e-05
-2.55959e-05
-2.5576e-05
-2.55759e-05
-2.55959e-05
-2.56468e-05
-2.57275e-05
-2.58356e-05
-2.5969e-05
-2.61252e-05
-2.63014e-05
-2.64945e-05
-2.67012e-05
-3.77522e-05
-3.7577e-05
-3.7413e-05
-3.72631e-05
-3.71305e-05
-3.70178e-05
-3.69275e-05
-3.68615e-05
-3.68227e-05
-3.68118e-05
-3.68118e-05
-3.68227e-05
-3.68615e-05
-3.69274e-05
-3.70178e-05
-3.71304e-05
-3.72631e-05
-3.74129e-05
-3.75769e-05
-3.77521e-05
-4.71583e-05
-4.70016e-05
-4.68537e-05
-4.67173e-05
-4.65956e-05
-4.64911e-05
-4.64062e-05
-4.63431e-05
-4.63046e-05
-4.62924e-05
-4.62924e-05
-4.63046e-05
-4.63431e-05
-4.64062e-05
-4.6491e-05
-4.65955e-05
-4.67173e-05
-4.68536e-05
-4.70016e-05
-4.71582e-05
-5.49581e-05
-5.48164e-05
-5.46818e-05
-5.4557e-05
-5.4445e-05
-5.43484e-05
-5.42695e-05
-5.42106e-05
-5.41742e-05
-5.41621e-05
-5.41621e-05
-5.41742e-05
-5.42105e-05
-5.42695e-05
-5.43484e-05
-5.4445e-05
-5.4557e-05
-5.46817e-05
-5.48163e-05
-5.4958e-05
-6.13523e-05
-6.12204e-05
-6.10945e-05
-6.09773e-05
-6.08717e-05
-6.07801e-05
-6.0705e-05
-6.06487e-05
-6.06134e-05
-6.0601e-05
-6.0601e-05
-6.06134e-05
-6.06486e-05
-6.0705e-05
-6.07801e-05
-6.08716e-05
-6.09773e-05
-6.10945e-05
-6.12204e-05
-6.13523e-05
-6.65833e-05
-6.64566e-05
-6.63354e-05
-6.62222e-05
-6.61196e-05
-6.60303e-05
-6.59566e-05
-6.59007e-05
-6.58651e-05
-6.58512e-05
-6.58512e-05
-6.58651e-05
-6.59007e-05
-6.59565e-05
-6.60302e-05
-6.61196e-05
-6.62222e-05
-6.63354e-05
-6.64566e-05
-6.65833e-05
-7.08463e-05
-7.0722e-05
-7.06029e-05
-7.04912e-05
-7.03896e-05
-7.03007e-05
-7.02269e-05
-7.01704e-05
-7.01336e-05
-7.01178e-05
-7.01178e-05
-7.01336e-05
-7.01704e-05
-7.02269e-05
-7.03007e-05
-7.03897e-05
-7.04912e-05
-7.06029e-05
-7.07221e-05
-7.08463e-05
-7.43062e-05
-7.41823e-05
-7.40634e-05
-7.39518e-05
-7.38499e-05
-7.37602e-05
-7.36853e-05
-7.36275e-05
-7.3589e-05
-7.35713e-05
-7.35713e-05
-7.3589e-05
-7.36275e-05
-7.36853e-05
-7.37602e-05
-7.38499e-05
-7.39518e-05
-7.40634e-05
-7.41823e-05
-7.43062e-05
-7.71036e-05
-7.69788e-05
-7.68591e-05
-7.67466e-05
-7.66435e-05
-7.65524e-05
-7.64758e-05
-7.64162e-05
-7.63759e-05
-7.63563e-05
-7.63563e-05
-7.63759e-05
-7.64163e-05
-7.64758e-05
-7.65524e-05
-7.66435e-05
-7.67466e-05
-7.68592e-05
-7.69789e-05
-7.71037e-05
-7.93573e-05
-7.92308e-05
-7.91096e-05
-7.89955e-05
-7.88907e-05
-7.87976e-05
-7.8719e-05
-7.86574e-05
-7.86152e-05
-7.85939e-05
-7.85939e-05
-7.86152e-05
-7.86574e-05
-7.87191e-05
-7.87977e-05
-7.88907e-05
-7.89955e-05
-7.91096e-05
-7.92308e-05
-7.93573e-05
-8.11663e-05
-8.10376e-05
-8.09144e-05
-8.07982e-05
-8.06913e-05
-8.0596e-05
-8.05149e-05
-8.0451e-05
-8.04067e-05
-8.03839e-05
-8.03839e-05
-8.04067e-05
-8.04511e-05
-8.0515e-05
-8.0596e-05
-8.06913e-05
-8.07983e-05
-8.09144e-05
-8.10377e-05
-8.11664e-05
-8.26133e-05
-8.2482e-05
-8.23562e-05
-8.22374e-05
-8.21277e-05
-8.20295e-05
-8.19456e-05
-8.18789e-05
-8.18322e-05
-8.18076e-05
-8.18076e-05
-8.18322e-05
-8.18789e-05
-8.19456e-05
-8.20296e-05
-8.21278e-05
-8.22375e-05
-8.23563e-05
-8.24821e-05
-8.26134e-05
-8.3766e-05
-8.36315e-05
-8.35025e-05
-8.33804e-05
-8.32671e-05
-8.31652e-05
-8.30776e-05
-8.30076e-05
-8.29579e-05
-8.29311e-05
-8.29311e-05
-8.2958e-05
-8.30076e-05
-8.30777e-05
-8.31653e-05
-8.32672e-05
-8.33804e-05
-8.35026e-05
-8.36316e-05
-8.37662e-05
-8.46797e-05
-8.45417e-05
-8.44087e-05
-8.42824e-05
-8.41647e-05
-8.40582e-05
-8.39661e-05
-8.38918e-05
-8.38385e-05
-8.38086e-05
-8.38086e-05
-8.38385e-05
-8.38919e-05
-8.39661e-05
-8.40583e-05
-8.41648e-05
-8.42825e-05
-8.44088e-05
-8.45418e-05
-8.46799e-05
-8.54004e-05
-8.52582e-05
-8.51206e-05
-8.49891e-05
-8.48658e-05
-8.47535e-05
-8.46558e-05
-8.45763e-05
-8.45183e-05
-8.44845e-05
-8.44845e-05
-8.45183e-05
-8.45763e-05
-8.46558e-05
-8.47536e-05
-8.48659e-05
-8.49892e-05
-8.51208e-05
-8.52584e-05
-8.54005e-05
-8.59655e-05
-8.58185e-05
-8.56752e-05
-8.55373e-05
-8.54071e-05
-8.52877e-05
-8.51831e-05
-8.50972e-05
-8.50336e-05
-8.4995e-05
-8.4995e-05
-8.50336e-05
-8.50973e-05
-8.51831e-05
-8.52878e-05
-8.54072e-05
-8.55374e-05
-8.56754e-05
-8.58187e-05
-8.59656e-05
-8.64052e-05
-8.62526e-05
-8.61023e-05
-8.59565e-05
-8.58179e-05
-8.56901e-05
-8.55772e-05
-8.54838e-05
-8.54135e-05
-8.53692e-05
-8.53692e-05
-8.54135e-05
-8.54839e-05
-8.55772e-05
-8.56901e-05
-8.5818e-05
-8.59566e-05
-8.61024e-05
-8.62527e-05
-8.64054e-05
-8.67437e-05
-8.65839e-05
-8.6425e-05
-8.62696e-05
-8.61209e-05
-8.5983e-05
-8.58606e-05
-8.57586e-05
-8.56807e-05
-8.56303e-05
-8.56303e-05
-8.56807e-05
-8.57586e-05
-8.58606e-05
-8.59831e-05
-8.6121e-05
-8.62697e-05
-8.64251e-05
-8.6584e-05
-8.67438e-05
-8.69989e-05
-8.683e-05
-8.66602e-05
-8.64929e-05
-8.63322e-05
-8.61826e-05
-8.60494e-05
-8.59383e-05
-8.58527e-05
-8.57962e-05
-8.57962e-05
-8.58527e-05
-8.59384e-05
-8.60495e-05
-8.61827e-05
-8.63323e-05
-8.64931e-05
-8.66604e-05
-8.68301e-05
-8.69991e-05
-8.7183e-05
-8.7002e-05
-8.68182e-05
-8.66361e-05
-8.64609e-05
-8.62985e-05
-8.61541e-05
-8.60339e-05
-8.59409e-05
-8.58787e-05
-8.58787e-05
-8.5941e-05
-8.6034e-05
-8.61542e-05
-8.62986e-05
-8.64611e-05
-8.66362e-05
-8.68183e-05
-8.70022e-05
-8.71832e-05
-8.73018e-05
-8.71039e-05
-8.69014e-05
-8.67008e-05
-8.65085e-05
-8.63313e-05
-8.61737e-05
-8.60403e-05
-8.59355e-05
-8.58652e-05
-8.58652e-05
-8.59355e-05
-8.60404e-05
-8.61739e-05
-8.63315e-05
-8.65087e-05
-8.6701e-05
-8.69016e-05
-8.71041e-05
-8.7302e-05
-8.73534e-05
-8.71314e-05
-8.69036e-05
-8.6678e-05
-8.64604e-05
-8.62548e-05
-8.60707e-05
-8.59161e-05
-8.57965e-05
-8.57177e-05
-8.57177e-05
-8.57965e-05
-8.59162e-05
-8.60708e-05
-8.6255e-05
-8.64606e-05
-8.66782e-05
-8.69038e-05
-8.71317e-05
-8.73536e-05
-8.73269e-05
-8.70699e-05
-8.68049e-05
-8.65373e-05
-8.62748e-05
-8.60287e-05
-8.58124e-05
-8.56359e-05
-8.55033e-05
-8.54181e-05
-8.54182e-05
-8.55034e-05
-8.5636e-05
-8.58126e-05
-8.60289e-05
-8.6275e-05
-8.65375e-05
-8.68052e-05
-8.70702e-05
-8.73271e-05
-8.72002e-05
-8.68909e-05
-8.6565e-05
-8.62337e-05
-8.59153e-05
-8.56274e-05
-8.538e-05
-8.5181e-05
-8.50343e-05
-8.4943e-05
-8.49431e-05
-8.50344e-05
-8.51812e-05
-8.53802e-05
-8.56276e-05
-8.59156e-05
-8.6234e-05
-8.65653e-05
-8.68912e-05
-8.72005e-05
-8.69365e-05
-8.65453e-05
-8.61323e-05
-8.57236e-05
-8.53418e-05
-8.50018e-05
-8.47136e-05
-8.44849e-05
-8.43201e-05
-8.42217e-05
-8.42217e-05
-8.43202e-05
-8.44851e-05
-8.47138e-05
-8.5002e-05
-8.53421e-05
-8.57239e-05
-8.61327e-05
-8.65457e-05
-8.69369e-05
-8.64797e-05
-8.59699e-05
-8.54458e-05
-8.49396e-05
-8.44736e-05
-8.40629e-05
-8.37188e-05
-8.34497e-05
-8.32599e-05
-8.31521e-05
-8.31522e-05
-8.32601e-05
-8.34498e-05
-8.37191e-05
-8.40632e-05
-8.44739e-05
-8.494e-05
-8.54462e-05
-8.59703e-05
-8.64802e-05
-8.57528e-05
-8.50845e-05
-8.44141e-05
-8.37762e-05
-8.31954e-05
-8.26889e-05
-8.22693e-05
-8.1945e-05
-8.1721e-05
-8.15995e-05
-8.15996e-05
-8.17211e-05
-8.19452e-05
-8.22695e-05
-8.26892e-05
-8.31957e-05
-8.37766e-05
-8.44145e-05
-8.5085e-05
-8.57533e-05
-8.46544e-05
-8.37738e-05
-8.29049e-05
-8.20888e-05
-8.1354e-05
-8.07201e-05
-8.02002e-05
-7.98026e-05
-7.95321e-05
-7.9391e-05
-7.93911e-05
-7.95322e-05
-7.98028e-05
-8.02004e-05
-8.07204e-05
-8.13543e-05
-8.20892e-05
-8.29053e-05
-8.37743e-05
-8.46549e-05
-8.30487e-05
-8.18791e-05
-8.07421e-05
-7.96889e-05
-7.8752e-05
-7.79527e-05
-7.73037e-05
-7.68121e-05
-7.64814e-05
-7.63134e-05
-7.63134e-05
-7.64815e-05
-7.68122e-05
-7.73039e-05
-7.7953e-05
-7.87524e-05
-7.96893e-05
-8.07426e-05
-8.18796e-05
-8.30493e-05
-8.07589e-05
-7.91935e-05
-7.76991e-05
-7.6337e-05
-7.51421e-05
-7.4135e-05
-7.33264e-05
-7.27201e-05
-7.23165e-05
-7.21148e-05
-7.21148e-05
-7.23166e-05
-7.27203e-05
-7.33267e-05
-7.41353e-05
-7.51425e-05
-7.63374e-05
-7.76996e-05
-7.9194e-05
-8.07595e-05
-7.75459e-05
-7.54502e-05
-7.34906e-05
-7.17396e-05
-7.02284e-05
-6.89708e-05
-6.79742e-05
-6.72355e-05
-6.67492e-05
-6.65099e-05
-6.65099e-05
-6.67493e-05
-6.72356e-05
-6.79744e-05
-6.89711e-05
-7.02287e-05
-7.174e-05
-7.34911e-05
-7.54508e-05
-7.75465e-05
-7.31157e-05
-7.03387e-05
-6.77902e-05
-6.55485e-05
-6.3654e-05
-6.21107e-05
-6.09083e-05
-6.00296e-05
-5.94585e-05
-5.91828e-05
-5.91828e-05
-5.94586e-05
-6.00298e-05
-6.09086e-05
-6.2111e-05
-6.36544e-05
-6.55489e-05