/*--------------------------------*- C++ -*----------------------------------*\
  =========                 |
  \\      /  F ield         | OpenFOAM: The Open Source CFD Toolbox
   \\    /   O peration     | Website:  https://openfoam.org
    \\  /    A nd           | Version:  6
     \\/     M anipulation  |
\*---------------------------------------------------------------------------*/
FoamFile
{
    version     2.0;
    format      ascii;
    class       surfaceScalarField;
    location    "10";
    object      phi;
}
// * * * * * * * * * * * * * * * * * * * * * * * * * * * * * * * * * * * * * //

dimensions      [0 3 -1 0 0 0 0];

internalField   nonuniform List<scalar> 
17340
(
-5.35104e-11
5.34879e-11
-5.47478e-11
1.2374e-12
-5.23959e-11
-2.3519e-12
-5.63752e-11
3.97927e-12
-6.44649e-11
8.08971e-12
-7.48046e-11
1.03397e-11
-8.62855e-11
1.14809e-11
-9.83386e-11
1.20531e-11
-1.10696e-10
1.23569e-11
-1.23236e-10
1.25401e-11
-1.35907e-10
1.26713e-11
-1.48688e-10
1.27807e-11
-1.61566e-10
1.28782e-11
-1.74528e-10
1.29626e-11
-1.87555e-10
1.30266e-11
-2.00614e-10
1.30586e-11
-2.13658e-10
1.30446e-11
-2.26628e-10
1.29694e-11
-2.39445e-10
1.28175e-11
-2.52019e-10
1.25737e-11
-2.64243e-10
1.22244e-11
-2.76001e-10
1.17579e-11
-2.87167e-10
1.11658e-11
-2.97611e-10
1.04437e-11
-3.07202e-10
9.59146e-12
-3.15816e-10
8.61372e-12
-3.23334e-10
7.51835e-12
-3.29648e-10
6.31411e-12
-3.34656e-10
5.00733e-12
-3.38259e-10
3.60339e-12
-3.40388e-10
2.12878e-12
-3.40913e-10
5.24657e-13
-3.39572e-10
-1.34038e-12
-3.36169e-10
-3.40297e-12
-3.30557e-10
-5.61239e-12
-3.22635e-10
-7.92197e-12
-3.12346e-10
-1.02889e-11
-2.99669e-10
-1.26769e-11
-2.84616e-10
-1.50532e-11
-1.73871e-11
-2.67229e-10
5.88164e-12
4.76062e-11
-3.50398e-11
4.21588e-11
-7.70103e-11
3.96186e-11
-1.13899e-10
4.08681e-11
-1.48263e-10
4.24536e-11
-1.81619e-10
4.36954e-11
-2.14686e-10
4.45485e-11
-2.47746e-10
4.51129e-11
-2.80883e-10
4.54938e-11
-3.1411e-10
4.5767e-11
-3.47414e-10
4.5975e-11
-3.80765e-10
4.61321e-11
-4.14118e-10
4.62308e-11
-4.47403e-10
4.62477e-11
-4.80525e-10
4.61489e-11
-5.1336e-10
4.5893e-11
-5.4575e-10
4.54349e-11
-5.77509e-10
4.47284e-11
-6.0842e-10
4.37288e-11
-6.38242e-10
4.23952e-11
-6.6671e-10
4.06929e-11
-6.93548e-10
3.85953e-11
-7.18468e-10
3.60862e-11
-7.41186e-10
3.31611e-11
-7.61422e-10
2.98281e-11
-7.78915e-10
2.61063e-11
-7.93419e-10
2.20224e-11
-8.04709e-10
1.76039e-11
-8.12572e-10
1.28708e-11
-8.16806e-10
7.83735e-12
-8.17204e-10
2.52645e-12
-8.13517e-10
-3.16243e-12
-8.05363e-10
-9.49397e-12
-7.92428e-10
-1.63376e-11
-7.74579e-10
-2.34621e-11
-7.51763e-10
-3.07377e-11
-7.23993e-10
-3.80587e-11
-6.91338e-10
-4.53326e-11
-6.53914e-10
-5.24766e-11
-5.9415e-11
-6.11886e-10
-3.70841e-12
5.13147e-11
-4.96193e-11
8.80696e-11
-1.06147e-10
9.61465e-11
-1.61919e-10
9.66399e-11
-2.15515e-10
9.60496e-11
-2.6744e-10
9.56207e-11
-3.18345e-10
9.5453e-11
-3.6866e-10
9.54282e-11
-4.18613e-10
9.54466e-11
-4.68295e-10
9.54491e-11
-5.17713e-10
9.53923e-11
-5.66811e-10
9.52308e-11
-6.1549e-10
9.49095e-11
-6.63605e-10
9.43624e-11
-7.10971e-10
9.35148e-11
-7.57364e-10
9.22867e-11
-8.02526e-10
9.05967e-11
-8.46163e-10
8.83657e-11
-8.87956e-10
8.55212e-11
-9.27561e-10
8.20007e-11
-9.64623e-10
7.77549e-11
-9.98779e-10
7.27508e-11
-1.02967e-09
6.69738e-11
-1.05694e-09
6.04298e-11
-1.08025e-09
5.31442e-11
-1.0993e-09
4.51594e-11
-1.11381e-09
3.65277e-11
-1.12351e-09
2.72996e-11
-1.12815e-09
1.75134e-11
-1.12749e-09
7.17646e-12
-1.12124e-09
-3.72405e-12
-1.10897e-09
-1.54274e-11
-1.09054e-09
-2.79209e-11
-1.06597e-09
-4.09147e-11
-1.03527e-09
-5.41559e-11
-9.9856e-10
-6.74515e-11
-9.55978e-10
-8.06407e-11
-9.07725e-10
-9.35857e-11
-8.54034e-10
-1.06167e-10
-1.18279e-10
-7.95171e-10
-2.42454e-11
7.556e-11
-7.45173e-11
1.38342e-10
-1.36249e-10
1.57879e-10
-2.0144e-10
1.61831e-10
-2.66846e-10
1.61456e-10
-3.31522e-10
1.60297e-10
-3.95328e-10
1.59258e-10
-4.58334e-10
1.58435e-10
-5.20616e-10
1.57728e-10
-5.82183e-10
1.57017e-10
-6.4298e-10
1.56189e-10
-7.02889e-10
1.55139e-10
-7.61736e-10
1.53757e-10
-8.19303e-10
1.5193e-10
-8.7533e-10
1.49541e-10
-9.29519e-10
1.46476e-10
-9.81542e-10
1.4262e-10
-1.03105e-09
1.37872e-10
-1.07767e-09
1.32141e-10
-1.12102e-09
1.25352e-10
-1.16072e-09
1.17455e-10
-1.19639e-09
1.08422e-10
-1.22767e-09
9.82494e-11
-1.2542e-09
8.69641e-11
-1.27567e-09
7.46171e-11
-1.2918e-09
6.12808e-11
-1.3023e-09
4.7037e-11
-1.30696e-09
3.19574e-11
-1.30554e-09
1.6087e-11
-1.29776e-09
-6.00881e-13
-1.28322e-09
-1.8265e-11
-1.26181e-09
-3.68376e-11
-1.23372e-09
-5.6008e-11
-1.19916e-09
-7.54738e-11
-1.15835e-09
-9.49721e-11
-1.11152e-09
-1.14281e-10
-1.05894e-09
-1.33213e-10
-1.00092e-09
-1.51612e-10
-9.37736e-10
-1.69348e-10
-1.86308e-10
-8.69706e-10
-3.16864e-11
1.07246e-10
-8.79326e-11
1.94588e-10
-1.55283e-10
2.25229e-10
-2.27154e-10
2.33701e-10
-3.00315e-10
2.34617e-10
-3.73339e-10
2.3332e-10
-4.4564e-10
2.31559e-10
-5.16984e-10
2.2978e-10
-5.8725e-10
2.27993e-10
-6.56318e-10
2.26085e-10
-7.24037e-10
2.23909e-10
-7.90212e-10
2.21314e-10
-8.54603e-10
2.18148e-10
-9.16934e-10
2.1426e-10
-9.76894e-10
2.09501e-10
-1.03415e-09
2.0373e-10
-1.08834e-09
1.96815e-10
-1.13911e-09
1.8864e-10
-1.18608e-09
1.7911e-10
-1.22888e-09
1.68154e-10
-1.26715e-09
1.55728e-10
-1.30055e-09
1.4182e-10
-1.32875e-09
1.2645e-10
-1.35146e-09
1.0967e-10
-1.36841e-09
9.15655e-11
-1.37937e-09
7.22405e-11
-1.38414e-09
5.18054e-11
-1.38252e-09
3.03416e-11
-1.37429e-09
7.85931e-12
-1.35916e-09
-1.57305e-11
-1.33701e-09
-4.04127e-11
-1.3081e-09
-6.575e-11
-1.27274e-09
-9.13689e-11
-1.23126e-09
-1.16953e-10
-1.184e-09
-1.42232e-10
-1.13131e-09
-1.66977e-10
-1.07352e-09
-1.91001e-10
-1.01098e-09
-2.14155e-10
-9.44002e-10
-2.36322e-10
-2.57408e-10
-8.72901e-10
-3.2819e-11
1.40065e-10
-9.27039e-11
2.54473e-10
-1.64105e-10
2.9663e-10
-2.40256e-10
3.09853e-10
-3.17967e-10
3.12328e-10
-3.95689e-10
3.11042e-10
-4.72653e-10
3.08523e-10
-5.48441e-10
3.05568e-10
-6.22781e-10
3.02332e-10
-6.95435e-10
2.98739e-10
-7.66165e-10
2.94639e-10
-8.34708e-10
2.89857e-10
-9.00776e-10
2.84216e-10
-9.64058e-10
2.77542e-10
-1.02422e-09
2.69668e-10
-1.08093e-09
2.6044e-10
-1.13384e-09
2.49723e-10
-1.1826e-09
2.374e-10
-1.22687e-09
2.23383e-10
-1.26633e-09
2.07614e-10
-1.30068e-09
1.90069e-10
-1.32961e-09
1.70759e-10
-1.3529e-09
1.49732e-10
-1.3703e-09
1.27073e-10
-1.38163e-09
1.02899e-10
-1.38674e-09
7.73465e-11
-1.38547e-09
5.05392e-11
-1.37768e-09
2.25492e-11
-1.36317e-09
-6.65298e-12
-1.34183e-09
-3.70674e-11
-1.31392e-09
-6.8322e-11
-1.27978e-09
-9.98875e-11
-1.2398e-09
-1.31351e-10
-1.19438e-09
-1.62376e-10
-1.14393e-09
-1.92683e-10
-1.08886e-09
-2.22048e-10
-1.02956e-09
-2.50301e-10
-9.66392e-10
-2.77322e-10
-8.99683e-10
-3.0303e-10
-3.27376e-10
-8.29716e-10
-3.20754e-11
1.72141e-10
-9.23801e-11
3.14777e-10
-1.64869e-10
3.69119e-10
-2.42404e-10
3.87387e-10
-3.21615e-10
3.91539e-10
-4.00831e-10
3.90259e-10
-4.7916e-10
3.86852e-10
-5.56064e-10
3.82471e-10
-6.31158e-10
3.77427e-10
-7.04122e-10
3.71703e-10
-7.74649e-10
3.65166e-10
-8.42432e-10
3.5764e-10
-9.07156e-10
3.4894e-10
-9.68502e-10
3.38887e-10
-1.02615e-09
3.27312e-10
-1.07977e-09
3.14063e-10
-1.12906e-09
2.99012e-10
-1.17371e-09
2.82054e-10
-1.21345e-09
2.63121e-10
-1.24801e-09
2.42174e-10
-1.27716e-09
2.19216e-10
-1.30069e-09
1.94287e-10
-1.31842e-09
1.67467e-10
-1.33022e-09
1.38873e-10
-1.33597e-09
1.08652e-10
-1.33559e-09
7.69623e-11
-1.32897e-09
4.39208e-11
-1.31598e-09
9.55642e-12
-1.29656e-09
-2.60719e-11
-1.27085e-09
-6.27795e-11
-1.23919e-09
-9.99763e-11
-1.20199e-09
-1.37093e-10
-1.15966e-09
-1.73681e-10
-1.11266e-09
-2.09374e-10
-1.06146e-09
-2.43881e-10
-1.00652e-09
-2.76986e-10
-9.48278e-10
-3.08546e-10
-8.87113e-10
-3.38486e-10
-8.23356e-10
-3.66787e-10
-3.93466e-10
-7.57267e-10
-2.99743e-11
2.02115e-10
-8.80395e-11
3.72842e-10
-1.58838e-10
4.39917e-10
-2.35048e-10
4.63597e-10
-3.13072e-10
4.69563e-10
-3.91077e-10
4.68265e-10
-4.68054e-10
4.63829e-10
-5.43371e-10
4.57788e-10
-6.16569e-10
4.50625e-10
-6.87268e-10
4.42401e-10
-7.55121e-10
4.33019e-10
-8.19801e-10
4.22319e-10
-8.80988e-10
4.10128e-10
-9.38376e-10
3.96274e-10
-9.91666e-10
3.80602e-10
-1.04058e-09
3.62976e-10
-1.08485e-09
3.43283e-10
-1.12424e-09
3.21445e-10
-1.15853e-09
2.97415e-10
-1.18754e-09
2.71184e-10
-1.21111e-09
2.42784e-10
-1.22911e-09
2.12285e-10
-1.24144e-09
1.79798e-10
-1.24804e-09
1.4547e-10
-1.24885e-09
1.09467e-10
-1.24384e-09
7.19505e-11
-1.23295e-09
3.3026e-11
-1.21608e-09
-7.30463e-12
-1.19325e-09
-4.89034e-11
-1.16476e-09
-9.12682e-11
-1.13099e-09
-1.33754e-10
-1.09233e-09
-1.75751e-10
-1.04925e-09
-2.16756e-10
-1.00227e-09
-2.56361e-10
-9.51897e-10
-2.9425e-10
-8.98671e-10
-3.30212e-10
-8.43074e-10
-3.64143e-10
-7.85532e-10
-3.96028e-10
-7.26387e-10
-4.25932e-10
-4.53967e-10
-6.65886e-10
-2.66589e-11
2.28774e-10
-8.03987e-11
4.26582e-10
-1.47219e-10
5.06738e-10
-2.19831e-10
5.36209e-10
-2.94441e-10
5.44172e-10
-3.69047e-10
5.4287e-10
-4.42522e-10
5.37304e-10
-5.14156e-10
5.29423e-10
-5.83438e-10
5.19906e-10
-6.49952e-10
5.08916e-10
-7.13337e-10
4.96404e-10
-7.73262e-10
4.82245e-10
-8.29424e-10
4.6629e-10
-8.81541e-10
4.48391e-10
-9.29354e-10
4.28416e-10
-9.72632e-10
4.06253e-10
-1.01117e-09
3.81821e-10
-1.04479e-09
3.55066e-10
-1.07335e-09
3.25974e-10
-1.09673e-09
2.94564e-10
-1.11485e-09
2.60898e-10
-1.12764e-09
2.25077e-10
-1.13507e-09
1.87236e-10
-1.13715e-09
1.47542e-10
-1.13385e-09
1.06168e-10
-1.12514e-09
6.32404e-11
-1.11095e-09
1.88346e-11
-1.09131e-09
-2.69371e-11
-1.06631e-09
-7.39099e-11
-1.03621e-09
-1.21369e-10
-1.00139e-09
-1.68567e-10
-9.62308e-10
-2.14837e-10
-9.19454e-10
-2.5961e-10
-8.73398e-10
-3.02418e-10
-8.24746e-10
-3.42902e-10
-7.74104e-10
-3.80854e-10
-7.22036e-10
-4.16211e-10
-6.69024e-10
-4.4904e-10
-6.15445e-10
-4.79511e-10
-5.07866e-10
-5.61547e-10
-2.2489e-11
2.51263e-10
-7.02926e-11
4.74386e-10
-1.31293e-10
5.67738e-10
-1.9846e-10
6.03377e-10
-2.67872e-10
6.13584e-10
-3.37365e-10
6.12363e-10
-4.05696e-10
6.05635e-10
-4.72085e-10
5.95812e-10
-5.35981e-10
5.83802e-10
-5.96952e-10
5.69888e-10
-6.54638e-10
5.54089e-10
-7.0872e-10
5.36327e-10
-7.58919e-10
5.16489e-10
-8.0499e-10
4.94462e-10
-8.46719e-10
4.70145e-10
-8.83926e-10
4.43461e-10
-9.16465e-10
4.1436e-10
-9.44221e-10
3.82822e-10
-9.6711e-10
3.48863e-10
-9.85078e-10
3.12532e-10
-9.98098e-10
2.73918e-10
-1.00617e-09
2.33144e-10
-1.0093e-09
1.90367e-10
-1.00752e-09
1.45763e-10
-1.00085e-09
9.95032e-11
-9.89286e-10
5.16733e-11
-9.72665e-10
2.21374e-12
-9.50976e-10
-4.86253e-11
-9.24477e-10
-1.00409e-10
-8.93434e-10
-1.52413e-10
-8.58208e-10
-2.03794e-10
-8.19256e-10
-2.53788e-10
-7.77128e-10
-3.01738e-10
-7.32458e-10
-3.47087e-10
-6.85948e-10
-3.89412e-10
-6.38305e-10
-4.28497e-10
-5.90189e-10
-4.64327e-10
-5.42159e-10
-4.9707e-10
-4.94646e-10
-5.27024e-10
-5.54595e-10
-4.47917e-10
-1.78246e-11
2.69088e-10
-5.85289e-11
5.1509e-10
-1.12285e-10
6.21494e-10
-1.72561e-10
6.63653e-10
-2.35392e-10
6.76415e-10
-2.98475e-10
6.75446e-10
-3.60456e-10
6.67616e-10
-4.20486e-10
6.55842e-10
-4.77984e-10
6.413e-10
-5.3251e-10
6.24413e-10
-5.8371e-10
6.0529e-10
-6.3129e-10
5.83907e-10
-6.75001e-10
5.602e-10
-7.14636e-10
5.34097e-10
-7.50027e-10
5.05536e-10
-7.81044e-10
4.74478e-10
-8.07591e-10
4.40907e-10
-8.29607e-10
4.04838e-10
-8.4706e-10
3.66316e-10
-8.59944e-10
3.25416e-10
-8.68273e-10
2.82248e-10
-8.72077e-10
2.36948e-10
-8.71392e-10
1.89681e-10
-8.66247e-10
1.40619e-10
-8.56642e-10
8.98977e-11
-8.42545e-10
3.75762e-11
-8.23989e-10
-1.63422e-11
-8.00892e-10
-7.17219e-11
-7.73385e-10
-1.27916e-10
-7.41768e-10
-1.84029e-10
-7.06435e-10
-2.39127e-10
-6.67876e-10
-2.92347e-10
-6.26692e-10
-3.42922e-10
-5.83593e-10
-3.90187e-10
-5.39386e-10
-4.33619e-10
-4.94896e-10
-4.72987e-10
-4.50893e-10
-5.0833e-10
-4.08029e-10
-5.39934e-10
-3.66806e-10
-5.68247e-10
-5.93873e-10
-3.27528e-10
-1.29636e-11
2.82051e-10
-4.58234e-11
5.4795e-10
-9.13113e-11
6.66982e-10
-1.43615e-10
7.15957e-10
-1.98837e-10
7.31636e-10
-2.5457e-10
7.31179e-10
-3.09357e-10
7.22403e-10
-3.62281e-10
7.08766e-10
-4.12729e-10
6.91748e-10
-4.60258e-10
6.71942e-10
-5.04527e-10
6.49558e-10
-5.45264e-10
6.24644e-10
-5.82253e-10
5.97189e-10
-6.15323e-10
5.67167e-10
-6.44348e-10
5.34561e-10
-6.69239e-10
4.99369e-10
-6.89945e-10
4.61613e-10
-7.06446e-10
4.21339e-10
-7.18748e-10
3.78618e-10
-7.26878e-10
3.33546e-10
-7.30877e-10
2.86247e-10
-7.3079e-10
2.36862e-10
-7.26662e-10
1.85553e-10
-7.1852e-10
1.32477e-10
-7.06345e-10
7.77229e-11
-6.90061e-10
2.12923e-11
-6.69682e-10
-3.67209e-11
-6.45224e-10
-9.61797e-11
-6.16819e-10
-1.56322e-10
-5.84741e-10
-2.16107e-10
-5.49396e-10
-2.74473e-10
-5.1131e-10
-3.30433e-10
-4.71136e-10
-3.83096e-10
-4.29655e-10
-4.31668e-10
-3.8779e-10
-4.75484e-10
-3.46488e-10
-5.14289e-10
-3.06637e-10
-5.48181e-10
-2.68984e-10
-5.77586e-10
-2.34117e-10
-6.03114e-10
-6.25602e-10
-2.02388e-10
-8.15738e-12
2.90209e-10
-3.28e-11
5.72593e-10
-6.93562e-11
7.03538e-10
-1.12935e-10
7.59536e-10
-1.59824e-10
7.78525e-10
-2.07562e-10
7.78918e-10
-2.546e-10
7.69441e-10
-2.99956e-10
7.54122e-10
-3.42983e-10
7.34775e-10
-3.8323e-10
7.1219e-10
-4.20367e-10
6.86696e-10
-4.54145e-10
6.58422e-10
-4.84375e-10
6.27418e-10
-5.10918e-10
5.9371e-10
-5.33682e-10
5.57324e-10
-5.52612e-10
5.18299e-10
-5.67688e-10
4.7669e-10
-5.7892e-10
4.32571e-10
-5.86339e-10
3.86036e-10
-5.8999e-10
3.37198e-10
-5.89926e-10
2.86182e-10
-5.86192e-10
2.33128e-10
-5.78821e-10
1.78182e-10
-5.6783e-10
1.21486e-10
-5.53214e-10
6.31068e-11
-5.34796e-10
2.8737e-12
-5.12561e-10
-5.89551e-11
-4.86722e-10
-1.22019e-10
-4.5739e-10
-1.85654e-10
-4.24818e-10
-2.48679e-10
-3.89435e-10
-3.09856e-10
-3.51809e-10
-3.68058e-10
-3.12642e-10
-4.22263e-10
-2.72772e-10
-4.71539e-10
-2.33255e-10
-5.15001e-10
-1.95146e-10
-5.52398e-10
-1.59442e-10
-5.83885e-10
-1.26988e-10
-6.1004e-10
-9.84641e-11
-6.31639e-10
-6.49793e-10
-7.42737e-11
-3.62544e-12
2.93834e-10
-1.99957e-11
5.88963e-10
-4.7271e-11
7.30814e-10
-8.16547e-11
7.9392e-10
-1.19741e-10
8.16611e-10
-1.59077e-10
8.18253e-10
-1.9804e-10
8.08404e-10
-2.35583e-10
7.91666e-10
-2.71023e-10
7.70214e-10
-3.03895e-10
7.45062e-10
-3.33875e-10
7.16675e-10
-3.60729e-10
6.85275e-10
-3.8429e-10
6.50979e-10
-4.04445e-10
6.13865e-10
-4.21125e-10
5.74005e-10
-4.34301e-10
5.31475e-10
-4.43973e-10
4.86361e-10
-4.50167e-10
4.38765e-10
-4.52928e-10
3.88797e-10
-4.52307e-10
3.36577e-10
-4.48353e-10
2.82228e-10
-4.41098e-10
2.25873e-10
-4.30537e-10
1.67621e-10
-4.16605e-10
1.07554e-10
-3.99259e-10
4.57604e-11
-3.78599e-10
-1.77865e-11
-3.54632e-10
-8.29215e-11
-3.27403e-10
-1.49248e-10
-2.97048e-10
-2.1601e-10
-2.63873e-10
-2.81853e-10
-2.2836e-10
-3.45369e-10
-1.91125e-10
-4.05294e-10
-1.52935e-10
-4.60453e-10
-1.14678e-10
-5.09795e-10
-7.75462e-11
-5.52133e-10
-4.26539e-11
-5.8729e-10
-1.10657e-11
-6.15473e-10
1.62221e-11
-6.37328e-10
3.84406e-11
-6.53857e-10
-6.66518e-10
5.51655e-11
4.69473e-13
2.93364e-10
-7.86465e-12
5.97297e-10
-2.57811e-11
7.4873e-10
-5.07389e-11
8.18878e-10
-7.97612e-11
8.45633e-10
-1.10473e-10
8.48966e-10
-1.41207e-10
8.39138e-10
-1.70856e-10
8.21314e-10
-1.98691e-10
7.9805e-10
-2.2423e-10
7.70601e-10
-2.47144e-10
7.39589e-10
-2.67207e-10
7.05339e-10
-2.84269e-10
6.6804e-10
-2.9823e-10
6.27827e-10
-3.09039e-10
5.84814e-10
-3.16678e-10
5.39114e-10
-3.21161e-10
4.90844e-10
-3.22519e-10
4.40124e-10
-3.208e-10
3.87078e-10
-3.16052e-10
3.31829e-10
-3.08319e-10
2.74494e-10
-2.97621e-10
2.15175e-10
-2.83928e-10
1.53927e-10
-2.67091e-10
9.07183e-11
-2.47028e-10
2.56972e-11
-2.23879e-10
-4.0936e-11
-1.97812e-10
-1.08989e-10
-1.68952e-10
-1.78107e-10
-1.37394e-10
-2.47568e-10
-1.03492e-10
-3.15756e-10
-6.77646e-11
-3.81097e-10
-3.08211e-11
-4.42237e-10
6.50847e-12
-4.97782e-10
4.30866e-11
-5.46373e-10
7.77391e-11
-5.86785e-10
1.09325e-10
-6.18876e-10
1.36698e-10
-6.42847e-10
1.58814e-10
-6.59444e-10
1.74907e-10
-6.69949e-10
-6.76066e-10
1.84455e-10
4.11761e-12
2.89247e-10
3.25859e-12
5.98156e-10
-5.51173e-12
7.575e-10
-2.10073e-11
8.34373e-10
-4.08713e-11
8.65497e-10
-6.28817e-11
8.70976e-10
-8.53572e-11
8.61613e-10
-1.0714e-10
8.43097e-10
-1.27456e-10
8.18366e-10
-1.45792e-10
7.88937e-10
-1.61807e-10
7.55604e-10
-1.75273e-10
7.18805e-10
-1.86046e-10
6.78814e-10
-1.94034e-10
6.35815e-10
-1.99192e-10
5.89971e-10
-2.01508e-10
5.4143e-10
-2.00996e-10
4.90332e-10
-1.97686e-10
4.36815e-10
-1.9162e-10
3.81011e-10
-1.82836e-10
3.23045e-10
-1.71361e-10
2.6302e-10
-1.57203e-10
2.01017e-10
-1.40335e-10
1.37059e-10
-1.20537e-10
7.09199e-11
-9.76522e-11
2.81246e-12
-7.18487e-11
-6.67395e-11
-4.34824e-11
-1.37355e-10
-1.26987e-11
-2.08891e-10
2.02195e-11
-2.80486e-10
5.48648e-11
-3.50401e-10
9.07686e-11
-4.17001e-10
1.27284e-10
-4.78753e-10
1.63493e-10
-5.33992e-10
1.98282e-10
-5.81162e-10
2.30607e-10
-6.1911e-10
2.59167e-10
-6.47436e-10
2.82686e-10
-6.66366e-10
3.00031e-10
-6.76788e-10
3.10312e-10
-6.8023e-10
-6.78682e-10
3.12928e-10
7.3235e-12
2.81923e-10
1.32413e-11
5.92238e-10
1.3099e-11
7.57643e-10
6.84447e-12
8.40628e-10
-3.91445e-12
8.76256e-10
-1.72467e-11
8.84308e-10
-3.15189e-11
8.75885e-10
-4.55372e-11
8.57115e-10
-5.84788e-11
8.31308e-10
-6.97927e-11
8.00251e-10
-7.91144e-11
7.64925e-10
-8.62032e-11
7.25894e-10
-9.09156e-11
6.83526e-10
-9.31527e-11
6.38052e-10
-9.2871e-11
5.8969e-10
-9.00564e-11
5.38616e-10
-8.47177e-11
4.84993e-10
-7.68772e-11
4.28974e-10
-6.65612e-11
3.70695e-10
-5.37896e-11
3.10273e-10
-3.85611e-11
2.47792e-10
-2.08283e-11
1.83284e-10
-4.55702e-13
1.16687e-10
2.26821e-11
4.77821e-11
4.84218e-11
-2.29273e-11
7.65404e-11
-9.48581e-11
1.0696e-10
-1.67775e-10
1.3939e-10
-2.4132e-10
1.73392e-10
-3.14488e-10
2.08678e-10
-3.85687e-10
2.44838e-10
-4.5316e-10
2.81154e-10
-5.15069e-10
3.16673e-10
-5.69511e-10
3.50256e-10
-6.14745e-10
3.80668e-10
-6.49522e-10
4.06526e-10
-6.73294e-10
4.26456e-10
-6.86296e-10
4.39233e-10
-6.89565e-10
4.43875e-10
-6.84873e-10
-6.74528e-10
4.3972e-10
1.00369e-11
2.71886e-10
2.20543e-11
5.80221e-10
2.98481e-11
7.49849e-10
3.23229e-11
8.38153e-10
3.04081e-11
8.78171e-10
2.56255e-11
8.89091e-10
1.94483e-11
8.82063e-10
1.30629e-11
8.635e-10
7.33029e-12
8.3704e-10
2.84463e-12
8.04737e-10
4.15838e-15
7.67766e-10
-9.3015e-13
7.26828e-10
2.07121e-13
6.82389e-10
3.51695e-12
6.34742e-10
9.05292e-12
5.84154e-10
1.68364e-11
5.30832e-10
2.68676e-11
4.74962e-10
3.91348e-11
4.16707e-10
5.36244e-11
3.56206e-10
7.03314e-11
2.93566e-10
8.92692e-11
2.28854e-10
1.10481e-10
1.62073e-10
1.34053e-10
9.31138e-11
1.60048e-10
2.17877e-11
1.88407e-10
-5.12869e-11
2.18843e-10
-1.25294e-10
2.51214e-10
-2.00146e-10
2.85257e-10
-2.75363e-10
3.2062e-10
-3.49852e-10
3.5696e-10
-4.22027e-10
3.93789e-10
-4.89989e-10
4.30353e-10
-5.51632e-10
4.65637e-10
-6.04795e-10
4.98409e-10
-6.47518e-10
5.27266e-10
-6.7838e-10
5.50706e-10
-6.96733e-10
5.67253e-10
-7.02843e-10
5.75599e-10
-6.9791e-10
5.74705e-10
-6.83979e-10
-6.63703e-10
5.6388e-10
1.22594e-11
2.59627e-10
2.96449e-11
5.62835e-10
4.46552e-11
7.34839e-10
5.52502e-11
8.27558e-10
6.17104e-11
8.71711e-10
6.51571e-11
8.85644e-10
6.68596e-11
8.8036e-10
6.79331e-11
8.62427e-10
6.92407e-11
8.35733e-10
7.14048e-11
8.02573e-10
7.48545e-11
7.64316e-10
7.98742e-11
7.21808e-10
8.66566e-11
6.75606e-10
9.53079e-11
6.26091e-10
1.05896e-10
5.73566e-10
1.18451e-10
5.18277e-10
1.32983e-10
4.6043e-10
1.49489e-10
4.002e-10
1.67966e-10
3.37729e-10
1.88414e-10
2.73118e-10
2.10852e-10
2.06416e-10
2.35325e-10
1.376e-10
2.61901e-10
6.65382e-11
2.90703e-10
-7.0146e-12
3.21529e-10
-8.21129e-11
3.54187e-10
-1.57952e-10
3.88533e-10
-2.34492e-10
4.2434e-10
-3.11171e-10
4.61306e-10
-3.86818e-10
4.99036e-10
-4.59757e-10
5.36953e-10
-5.27906e-10
5.74215e-10
-5.88895e-10
6.097e-10
-6.40279e-10
6.42031e-10
-6.79849e-10
6.69646e-10
-7.05994e-10
6.90901e-10
-7.17988e-10
7.04215e-10
-7.16158e-10
7.08212e-10
-7.01907e-10
7.01825e-10
-6.77592e-10
-6.46253e-10
6.84376e-10
1.4012e-11
2.45615e-10
3.60041e-11
5.40843e-10
5.74616e-11
7.13381e-10
7.55004e-11
8.09519e-10
8.97874e-11
8.57424e-10
1.01043e-10
8.74388e-10
1.10306e-10
8.71098e-10
1.18579e-10
8.54153e-10
1.26696e-10
8.27616e-10
1.35286e-10
7.93982e-10
1.44801e-10
7.54801e-10
1.55552e-10
7.11058e-10
1.67746e-10
6.63412e-10
1.81511e-10
6.12325e-10
1.96926e-10
5.58152e-10
2.14031e-10
5.01171e-10
2.32847e-10
4.41614e-10
2.53379e-10
3.79668e-10
2.7563e-10
3.15478e-10
2.99612e-10
2.49137e-10
3.25354e-10
1.80673e-10
3.52957e-10
1.09997e-10
3.82595e-10
3.69003e-11
4.14095e-10
-3.85148e-11
4.47173e-10
-1.15191e-10
4.81951e-10
-1.9273e-10
5.18318e-10
-2.70859e-10
5.56058e-10
-3.4891e-10
5.94868e-10
-4.25628e-10
6.34304e-10
-4.99194e-10
6.73695e-10
-5.67297e-10
7.12074e-10
-6.27273e-10
7.48158e-10
-6.76364e-10
7.80391e-10
-7.12082e-10
8.07027e-10
-7.3263e-10
8.26269e-10
-7.3723e-10
8.36429e-10
-7.26318e-10
8.3608e-10
-7.01558e-10
8.24165e-10
-6.65677e-10
-6.2215e-10
8.00062e-10
1.53225e-11
2.30292e-10
4.11522e-11
5.15014e-10
6.82449e-11
6.86288e-10
9.29898e-11
7.84774e-10
1.14483e-10
8.3593e-10
1.33048e-10
8.55824e-10
1.49468e-10
8.54678e-10
1.64611e-10
8.3901e-10
1.7925e-10
8.12977e-10
1.94003e-10
7.7923e-10
2.0933e-10
7.39473e-10
2.25562e-10
6.94826e-10
2.42923e-10
6.46051e-10
2.61558e-10
5.9369e-10
2.8156e-10
5.3815e-10
3.0298e-10
4.79751e-10
3.25848e-10
4.18746e-10
3.50179e-10
3.55337e-10
3.75986e-10
2.8967e-10
4.03291e-10
2.21832e-10
4.32136e-10
1.51828e-10
4.62612e-10
7.95211e-11
4.95005e-10
4.50723e-12
5.29045e-10
-7.25553e-11
5.64523e-10
-1.5067e-10
6.01522e-10
-2.29728e-10
6.40028e-10
-3.09365e-10
6.79881e-10
-3.88764e-10
7.20784e-10
-4.66531e-10
7.62239e-10
-5.40648e-10
8.03464e-10
-6.08522e-10
8.43332e-10
-6.67142e-10
8.80363e-10
-7.13395e-10
9.12779e-10
-7.44498e-10
9.38622e-10
-7.58473e-10
9.55927e-10
-7.54535e-10
9.62903e-10
-7.33294e-10
9.58098e-10
-6.96754e-10
9.40507e-10
-6.48086e-10
-5.91263e-10
9.0962e-10
1.62239e-11
2.14069e-10
4.51299e-11
4.86108e-10
7.70179e-11
6.544e-10
1.0768e-10
7.54113e-10
1.35694e-10
8.07916e-10
1.60993e-10
8.30525e-10
1.841e-10
8.31571e-10
2.05722e-10
8.17388e-10
2.26548e-10
7.92151e-10
2.47163e-10
7.58615e-10
2.68025e-10
7.18611e-10
2.89471e-10
6.73379e-10
3.11741e-10
6.23781e-10
3.34995e-10
5.70436e-10
3.59337e-10
5.13809e-10
3.8483e-10
4.54258e-10
4.11514e-10
3.92062e-10
4.39416e-10
3.27436e-10
4.68563e-10
2.60523e-10
4.99005e-10
1.91391e-10
5.30857e-10
1.19976e-10
5.64324e-10
4.6054e-11
5.99354e-10
-3.05233e-11
6.35616e-10
-1.08817e-10
6.73306e-10
-1.8836e-10
7.12522e-10
-2.68943e-10
7.53265e-10
-3.50108e-10
7.95409e-10
-4.30908e-10
8.38646e-10
-5.09768e-10
8.82411e-10
-5.84413e-10
9.2579e-10
-6.51901e-10
9.67464e-10
-7.08816e-10
1.00571e-09
-7.51641e-10
1.03849e-09
-7.77278e-10
1.06361e-09
-7.8359e-10
1.07891e-09
-7.69839e-10
1.08252e-09
-7.36903e-10
1.07299e-09
-6.87223e-10
1.04942e-09
-6.24514e-10
-5.5332e-10
1.01147e-09
1.67531e-11
1.97315e-10
4.79955e-11
4.54865e-10
8.38271e-11
6.18569e-10
1.19578e-10
7.18362e-10
1.53369e-10
7.74125e-10
1.84767e-10
7.99127e-10
2.14026e-10
8.02311e-10
2.41678e-10
7.89736e-10
2.68309e-10
7.6552e-10
2.94452e-10
7.32472e-10
3.20545e-10
6.92518e-10
3.46924e-10
6.47e-10
3.73836e-10
5.96869e-10
4.01451e-10
5.42821e-10
4.29882e-10
4.85377e-10
4.59205e-10
4.24935e-10
4.89468e-10
3.61799e-10
5.20712e-10
2.96192e-10
5.52982e-10
2.28253e-10
5.86351e-10
1.58022e-10
6.20949e-10
8.5378e-11
6.57095e-10
9.90817e-12
6.94556e-10
-6.79847e-11
7.3316e-10
-1.47421e-10
7.73124e-10
-2.28324e-10
8.14629e-10
-3.10449e-10
8.57738e-10
-3.93217e-10
9.02355e-10
-4.75524e-10
9.48154e-10
-5.55568e-10
9.94487e-10
-6.30746e-10
1.04028e-09
-6.97695e-10
1.08399e-09
-7.52522e-10
1.1236e-09
-7.91256e-10
1.15679e-09
-8.10462e-10
1.18107e-09
-8.07876e-10
1.19412e-09
-7.82889e-10
1.19397e-09
-7.36755e-10
1.17923e-09
-6.7248e-10
1.14916e-09
-5.94444e-10
-5.07849e-10
1.10369e-09
1.69502e-11
1.80365e-10
4.9823e-11
4.21992e-10
8.87492e-11
5.79643e-10
1.28735e-10
6.78377e-10
1.67516e-10
7.35344e-10
2.04318e-10
7.62325e-10
2.39136e-10
7.67494e-10
2.72315e-10
7.56557e-10
3.04322e-10
7.33513e-10
3.35622e-10
7.01172e-10
3.66617e-10
6.61523e-10
3.97631e-10
6.15986e-10
4.28907e-10
5.65593e-10
4.6062e-10
5.11108e-10
4.92891e-10
4.53106e-10
5.25802e-10
3.92024e-10
5.59415e-10
3.28186e-10
5.93784e-10
2.61822e-10
6.28986e-10
1.93052e-10
6.65158e-10
1.2185e-10
7.02535e-10
4.8001e-11
7.4119e-10
-2.87466e-11
7.80813e-10
-1.07607e-10
8.21621e-10
-1.88229e-10
8.63852e-10
-2.70554e-10
9.07715e-10
-3.54312e-10
9.53315e-10
-4.38816e-10
1.00057e-09
-5.22781e-10
1.04913e-09
-6.04121e-10
1.09822e-09
-6.79839e-10
1.14659e-09
-7.46068e-10
1.19243e-09
-7.98359e-10
1.2334e-09
-8.3223e-10
1.26683e-09
-8.43895e-10
1.28996e-09
-8.31005e-10
1.30025e-09
-7.93178e-10
1.29569e-09
-7.32188e-10
1.27497e-09
-6.51762e-10
1.23761e-09
-5.57081e-10
-4.54106e-10
1.18386e-09
1.68571e-11
1.63508e-10
5.06986e-11
3.88151e-10
9.18877e-11
5.38454e-10
1.35242e-10
6.35022e-10
1.78191e-10
6.92395e-10
2.19658e-10
7.20858e-10
2.59387e-10
7.27765e-10
2.97537e-10
7.18408e-10
3.34445e-10
6.96605e-10
3.70492e-10
6.65125e-10
4.06031e-10
6.25983e-10
4.41361e-10
5.80656e-10
4.76713e-10
5.30242e-10
5.12258e-10
4.75563e-10
5.4812e-10
4.17244e-10
5.84387e-10
3.55757e-10
6.21131e-10
2.91443e-10
6.58426e-10
2.24527e-10
6.96377e-10
1.55101e-10
7.35152e-10
8.30745e-11
7.7512e-10
8.03335e-12
8.1608e-10
-6.97065e-11
8.57923e-10
-1.4945e-10
9.00961e-10
-2.31267e-10
9.45509e-10
-3.15102e-10
9.9182e-10
-4.00623e-10
1.04003e-09
-4.87025e-10
1.09006e-09
-5.72807e-10
1.14148e-09
-6.55548e-10
1.19342e-09
-7.31777e-10
1.24439e-09
-7.97037e-10
1.29227e-09
-8.46241e-10
1.33438e-09
-8.74333e-10
1.36765e-09
-8.77166e-10
1.389e-09
-8.5236e-10
1.39571e-09
-7.99889e-10
1.38573e-09
-7.22211e-10
1.35793e-09
-6.23957e-10
1.31212e-09
-5.11271e-10
-3.90965e-10
1.24898e-09
1.65158e-11
1.46992e-10
5.0717e-11
3.5395e-10
9.3368e-11
4.95803e-10
1.39228e-10
5.89162e-10
1.855e-10
6.46122e-10
2.30853e-10
6.75506e-10
2.74799e-10
6.83819e-10
3.17315e-10
6.75891e-10
3.58602e-10
6.55318e-10
3.98948e-10
6.2478e-10
4.38644e-10
5.86286e-10
4.77951e-10
5.41349e-10
5.17079e-10
4.91114e-10
5.56188e-10
4.36454e-10
5.95399e-10
3.78033e-10
6.34804e-10
3.16351e-10
6.74488e-10
2.51759e-10
7.14556e-10
1.84459e-10
7.55179e-10
1.14477e-10
7.96638e-10
4.16157e-11
8.39037e-10
-3.43653e-11
8.82095e-10
-1.12765e-10
9.26112e-10
-1.93468e-10
9.7142e-10
-2.76575e-10
1.01836e-09
-3.62038e-10
1.0672e-09
-4.49468e-10
1.1181e-09
-5.37923e-10
1.17094e-09
-6.25652e-10
1.22524e-09
-7.09842e-10
1.27993e-09
-7.86474e-10
1.33331e-09
-8.50412e-10
1.3829e-09
-8.95836e-10
1.42563e-09
-9.17054e-10
1.45801e-09
-9.09547e-10
1.47663e-09
-8.70979e-10
1.47856e-09
-8.0182e-10
1.46177e-09
-7.0542e-10
1.42533e-09
-5.87525e-10
1.36947e-09
-4.55402e-10
-3.16789e-10
1.29529e-09
1.59671e-11
1.31025e-10
4.99777e-11
3.19939e-10
9.33317e-11
4.52449e-10
1.40849e-10
5.41645e-10
1.89591e-10
5.9738e-10
2.38022e-10
6.27075e-10
2.85452e-10
6.36388e-10
3.31687e-10
6.29657e-10
3.7679e-10
6.10214e-10
4.2095e-10
5.80621e-10
4.64387e-10
5.42849e-10
5.07314e-10
4.98422e-10
5.4991e-10
4.48517e-10
5.92319e-10
3.94045e-10
6.34653e-10
3.35699e-10
6.77008e-10
2.73997e-10
7.19483e-10
2.09284e-10
7.62215e-10
1.41727e-10
8.05422e-10
7.12697e-11
8.49483e-10
-2.44546e-12
8.9417e-10
-7.9052e-11
9.39492e-10
-1.58087e-10
9.85804e-10
-2.3978e-10
1.03349e-09
-3.2426e-10
1.08291e-09
-4.11455e-10
1.13434e-09
-5.00903e-10
1.18792e-09
-5.91503e-10
1.24349e-09
-6.81222e-10
1.30045e-09
-7.66803e-10
1.35758e-09
-8.43605e-10
1.41289e-09
-9.0572e-10
1.46355e-09
-9.46497e-10
1.50603e-09
-9.59535e-10
1.53642e-09
-9.39935e-10
1.55092e-09
-8.85483e-10
1.54643e-09
-7.97324e-10
1.52094e-09
-6.79932e-10
1.47381e-09
-5.40396e-10
1.40567e-09
-3.87261e-10
-2.29209e-10
1.31809e-09
1.52492e-11
1.15776e-10
4.85808e-11
2.86608e-10
9.19305e-11
4.09099e-10
1.40285e-10
4.93291e-10
1.90648e-10
5.47017e-10
2.41335e-10
5.76388e-10
2.91489e-10
5.86234e-10
3.4076e-10
5.80387e-10
3.89081e-10
5.61892e-10
4.36539e-10
5.33163e-10
4.83279e-10
4.9611e-10
5.29458e-10
4.52244e-10
5.75218e-10
4.02757e-10
6.2068e-10
3.48583e-10
6.65947e-10
2.90432e-10
7.11121e-10
2.28823e-10
7.56329e-10
1.64076e-10
8.01766e-10
9.62907e-11
8.47795e-10
2.52411e-11
8.94411e-10
-4.90615e-11
9.41378e-10
-1.26019e-10
9.89062e-10
-2.05771e-10
1.03781e-09
-2.88531e-10
1.088e-09
-3.74442e-10
1.13995e-09
-4.63409e-10
1.19393e-09
-5.54887e-10
1.25003e-09
-6.47601e-10
1.30802e-09
-7.39206e-10
1.36717e-09
-8.2596e-10
1.4261e-09
-9.0253e-10
1.48252e-09
-9.6214e-10
1.53322e-09
-9.97203e-10
1.57421e-09
-1.00052e-09
1.60106e-09
-9.66793e-10
1.60961e-09
-8.94023e-10
1.59651e-09
-7.84233e-10
1.55986e-09
-6.43281e-10
1.49931e-09
-4.79844e-10
1.41584e-09
-3.03792e-10
-1.2451e-10
1.31114e-09
1.4397e-11
1.01379e-10
4.66231e-11
2.54382e-10
8.93196e-11
3.66403e-10
1.37731e-10
4.44879e-10
1.88884e-10
4.95864e-10
2.41005e-10
5.24268e-10
2.93109e-10
5.34129e-10
3.44712e-10
5.28784e-10
3.95633e-10
5.10972e-10
4.45857e-10
4.82939e-10
4.95454e-10
4.46513e-10
5.44522e-10
4.03176e-10
5.93163e-10
3.54116e-10
6.41473e-10
3.00272e-10
6.8955e-10
2.42356e-10
7.37507e-10
1.80865e-10
7.85515e-10
1.16068e-10
8.33847e-10
4.79593e-11
8.82744e-10
-2.3656e-11
9.31919e-10
-9.8237e-11
9.81528e-10
-1.75627e-10
1.03187e-09
-2.5611e-10
1.08326e-09
-3.3993e-10
1.13605e-09
-4.27226e-10
1.19051e-09
-5.17865e-10
1.24683e-09
-6.11214e-10
1.30505e-09
-7.05814e-10
1.36484e-09
-7.98996e-10
1.42537e-09
-8.86496e-10
1.48507e-09
-9.6223e-10
1.54138e-09
-1.01845e-09
1.59069e-09
-1.04651e-09
1.62848e-09
-1.03831e-09
1.64979e-09
-9.88106e-10
1.64999e-09
-8.94218e-10
1.62551e-09
-7.59761e-10
1.57451e-09
-5.92272e-10
1.49691e-09
-4.02245e-10
1.39386e-09
-2.00744e-10
3.21784e-12
1.26613e-09
1.34404e-11
8.79386e-11
4.41943e-11
2.23628e-10
8.56517e-11
3.24945e-10
1.33391e-10
3.97139e-10
1.84537e-10
4.44719e-10
2.37285e-10
4.71519e-10
2.90569e-10
4.80846e-10
3.43802e-10
4.75551e-10
3.96701e-10
4.58072e-10
4.49165e-10
4.30475e-10
5.0119e-10
3.94488e-10
5.52819e-10
3.51547e-10
6.04115e-10
3.02821e-10
6.55153e-10
2.49234e-10
7.0603e-10
1.91479e-10
7.56886e-10
1.30009e-10
8.07944e-10
6.50101e-11
8.59561e-10
-3.65768e-12
9.11481e-10
-7.5576e-11
9.63598e-10
-1.50354e-10
1.01617e-09
-2.28199e-10
1.06943e-09
-3.09375e-10
1.12364e-09
-3.94131e-10
1.17901e-09
-4.82596e-10
1.23574e-09
-5.746e-10
1.29395e-09
-6.69421e-10
1.35356e-09