/*--------------------------------*- C++ -*----------------------------------*\
  =========                 |
  \\      /  F ield         | OpenFOAM: The Open Source CFD Toolbox
   \\    /   O peration     | Website:  https://openfoam.org
    \\  /    A nd           | Version:  6
     \\/     M anipulation  |
\*---------------------------------------------------------------------------*/
FoamFile
{
    version     2.0;
    format      ascii;
    class       volScalarField;
    location    "10";
    object      phii;
}
// * * * * * * * * * * * * * * * * * * * * * * * * * * * * * * * * * * * * * //

dimensions      [1 2 -3 0 0 -1 0];

internalField   nonuniform List<scalar> 
8800
(
12.4983
12.5048
12.5148
12.5276
12.5432
12.5615
12.5824
12.6059
12.632
12.6606
12.6917
12.7251
12.7607
12.7984
12.8382
12.8799
12.9234
12.9685
13.0152
13.0633
13.1127
13.1631
13.2145
13.2667
13.3195
13.3727
13.4262
13.4797
13.533
13.586
13.6384
13.69
13.7406
13.7901
13.8382
13.8847
13.9294
13.9721
14.0126
14.0505
36.1459
36.1622
36.1901
36.2274
36.273
36.3269
36.3886
36.4582
36.5354
36.6201
36.712
36.8108
36.9163
37.0282
37.1462
37.2699
37.3989
37.533
37.6717
37.8146
37.9613
38.1113
38.2642
38.4195
38.5767
38.7352
38.8944
39.0539
39.2128
39.3708
39.527
39.681
39.8321
39.9798
40.1235
40.2624
40.396
40.5236
40.6444
40.7578
58.6006
58.6267
58.6717
58.7323
58.8072
58.8956
58.9973
59.112
59.2393
59.3789
59.5305
59.6937
59.8679
60.0528
60.2477
60.4522
60.6656
60.8875
61.117
61.3537
61.5967
61.8453
62.0988
62.3564
62.6171
62.8802
63.1445
63.4093
63.6734
63.9358
64.1956
64.4517
64.7032
64.9491
65.1884
65.4199
65.6424
65.855
66.0564
66.2454
80.007
80.0431
80.105
80.1886
80.2919
80.4142
80.555
80.7138
80.8902
81.0839
81.2943
81.5207
81.7627
82.0195
82.2905
82.5748
82.8718
83.1806
83.5002
83.8299
84.1686
84.5153
84.869
85.2284
85.5925
85.96
86.3295
86.6996
87.069
87.4362
87.7999
88.1588
88.5115
88.8564
89.1922
89.5171
89.8296
90.1282
90.4111
90.6767
100.496
100.542
100.621
100.727
100.858
101.014
101.193
101.395
101.62
101.867
102.135
102.424
102.733
103.061
103.408
103.771
104.151
104.546
104.956
105.378
105.813
106.258
106.712
107.173
107.641
108.114
108.589
109.065
109.541
110.014
110.483
110.947
111.402
111.848
112.282
112.702
113.107
113.493
113.859
114.203
120.182
120.238
120.334
120.463
120.622
120.81
121.027
121.273
121.545
121.845
122.171
122.522
122.897
123.296
123.717
124.16
124.623
125.105
125.604
126.12
126.651
127.194
127.75
128.315
128.888
129.467
130.049
130.634
131.218
131.8
132.377
132.947
133.508
134.058
134.593
135.111
135.61
136.087
136.54
136.965
139.168
139.234
139.347
139.498
139.684
139.905
140.16
140.448
140.768
141.12
141.503
141.916
142.358
142.828
143.324
143.847
144.393
144.962
145.552
146.162
146.79
147.434
148.093
148.763
149.443
150.131
150.824
151.52
152.215
152.909
153.598
154.279
154.949
155.606
156.247
156.867
157.465
158.036
158.578
159.087
157.542
157.618
157.747
157.92
158.134
158.387
158.679
159.01
159.377
159.782
160.222
160.697
161.206
161.747
162.319
162.922
163.553
164.211
164.893
165.6
166.327
167.074
167.838
168.616
169.407
170.207
171.014
171.825
172.636
173.446
174.251
175.048
175.833
176.602
177.352
178.079
178.78
179.45
180.086
180.684
175.38
175.465
175.61
175.805
176.046
176.332
176.661
177.034
177.449
177.906
178.404
178.942
179.518
180.132
180.782
181.466
182.183
182.932
183.709
184.514
185.344
186.197
187.07
187.961
188.866
189.783
190.708
191.639
192.572
193.504
194.431
195.348
196.253
197.14
198.006
198.846
199.655
200.429
201.164
201.855
192.746
192.84
193.001
193.218
193.486
193.804
194.171
194.587
195.05
195.561
196.117
196.719
197.364
198.051
198.78
199.548
200.354
201.195
202.071
202.978
203.914
204.876
205.863
206.87
207.895
208.934
209.984
211.041
212.101
213.161
214.216
215.262
216.293
217.305
218.292
219.251
220.175
221.059
221.898
222.688
209.697
209.8
209.976
210.214
210.509
210.859
211.265
211.724
212.236
212.801
213.417
214.083
214.799
215.563
216.372
217.227
218.124
219.062
220.038
221.051
222.098
223.175
224.28
225.41
226.56
227.727
228.908
230.098
231.293
232.488
233.678
234.859
236.023
237.167
238.284
239.368
240.413
241.414
242.364
243.259
226.279
226.389
226.58
226.839
227.162
227.545
227.989
228.492
229.054
229.674
230.352
231.085
231.873
232.715
233.608
234.552
235.544
236.582
237.664
238.787
239.949
241.147
242.376
243.634
244.916
246.218
247.537
248.867
250.204
251.542
252.876
254.199
255.506
256.789
258.042
259.259
260.433
261.558
262.626
263.631
242.532
242.649
242.855
243.135
243.484
243.901
244.384
244.932
245.545
246.222
246.962
247.765
248.628
249.55
250.53
251.567
252.657
253.8
254.992
256.231
257.513
258.836
260.196
261.588
263.01
264.455
265.919
267.398
268.885
270.375
271.86
273.334
274.791
276.222
277.62
278.979
280.289
281.545
282.738
283.862
258.488
258.613
258.832
259.133
259.51
259.96
260.483
261.077
261.743
262.478
263.283
264.157
265.097
266.103
267.174
268.307
269.5
270.751
272.058
273.417
274.826
276.281
277.778
279.313
280.88
282.476
284.094
285.73
287.376
289.026
290.672
292.307
293.922
295.511
297.063
298.571
300.027
301.422
302.748
303.997
274.177
274.308
274.541
274.862
275.267
275.751
276.314
276.956
277.675
278.471
279.343
280.29
281.311
282.404
283.568
284.801
286.101
287.466
288.892
290.378
291.92
293.513
295.154
296.838
298.56
300.315
302.096
303.897
305.711
307.531
309.347
311.152
312.937
314.691
316.407
318.075
319.685
321.229
322.696
324.079
289.62
289.757
290.004
290.346
290.778
291.297
291.902
292.592
293.366
294.224
295.165
296.188
297.292
298.475
299.736
301.074
302.485
303.968
305.52
307.138
308.818
310.557
312.349
314.19
316.075
317.997
319.949
321.926
323.918
325.917
327.914
329.9
331.864
333.796
335.685
337.523
339.297
340.999
342.617
344.142
304.838
304.98
305.24
305.603
306.063
306.617
307.265
308.005
308.836
309.758
310.77
311.871
313.061
314.337
315.699
317.145
318.672
320.278
321.961
323.717
325.542
327.433
329.384
331.39
333.445
335.543
337.677
339.838
342.019
344.208
346.397
348.574
350.728
352.849
354.924
356.942
358.892
360.762
362.541
364.218
319.845
319.993
320.265
320.649
321.137
321.728
322.419
323.209
324.098
325.086
326.172
327.354
328.632
330.005
331.471
333.029
334.677
336.411
338.23
340.13
342.106
344.156
346.273
348.452
350.687
352.971
355.296
357.652
360.031
362.422
364.814
367.194
369.551
371.873
374.145
376.356
378.493
380.544
382.495
384.335
334.654
334.807
335.093
335.497
336.014
336.641
337.376
338.218
339.167
340.222
341.383
342.649
344.018
345.491
347.065
348.739
350.511
352.378
354.339
356.388
358.523
360.738
363.029
365.39
367.813
370.292
372.817
375.38
377.969
380.573
383.18
385.777
388.35
390.885
393.369
395.787
398.124
400.368
402.504
404.519
349.275
349.434
349.732
350.157
350.703
351.366
352.146
353.042
354.052
355.176
356.414
357.765
359.229
360.804
362.489
364.283
366.184
368.189
370.295
372.5
374.799
377.188
379.66
382.21
384.831
387.515
390.252
393.031
395.843
398.673
401.509
404.336
407.139
409.903
412.612
415.251
417.805
420.257
422.592
424.795
363.715
363.88
364.19
364.636
365.211
365.912
366.738
367.687
368.759
369.954
371.271
372.71
374.27
375.95
377.75
379.667
381.701
383.848
386.106
388.471
390.941
393.509
396.171
398.919
401.746
404.645
407.604
410.613
413.659
416.729
419.808
422.88
425.929
428.938
431.89
434.767
437.553
440.229
442.78
445.187
377.981
378.151
378.474
378.941
379.545
380.284
381.156
382.16
383.295
384.562
385.959
387.488
389.146
390.934
392.851
394.895
397.065
399.358
401.772
404.304
406.95
409.705
412.563
415.518
418.562
421.685
424.878
428.128
431.423
434.747
438.084
441.418
444.73
448.002
451.215
454.349
457.386
460.306
463.09
465.72
392.076
392.252
392.588
393.075
393.709
394.486
395.404
396.463
397.663
399.002
400.482
402.101
403.86
405.758
407.794
409.968
412.277
414.721
417.296
419.999
422.827
425.775
428.837
432.007
435.276
438.636
442.074
445.579
449.136
452.729
456.342
459.955
463.549
467.105
470.599
474.013
477.323
480.508
483.547
486.418
406.003
406.184
406.533
407.042
407.705
408.52
409.485
410.6
411.864
413.277
414.839
416.551
418.412
420.421
422.58
424.885
427.337
429.935
432.674
435.554
438.57
441.717
444.991
448.384
451.888
455.493
459.189
462.962
466.796
470.676
474.582
478.495
482.393
486.254
490.054
493.771
497.379
500.854
504.173
507.309
419.764
419.95
420.312
420.841
421.534
422.387
423.399
424.57
425.899
427.386
429.032
430.837
432.801
434.924
437.205
439.645
442.243
444.997
447.905
450.965
454.173
457.526
461.018
464.643
468.391
472.254
476.22
480.274
484.402
488.586
492.806
497.04
501.265
505.457
509.59
513.638
517.573
521.368
524.994
528.423
433.358
433.55
433.924
434.474
435.196
436.087
437.146
438.373
439.767
441.329
443.059
444.957
447.025
449.262
451.669
454.245
456.99
459.903
462.982
466.227
469.633
473.197
476.914
480.777
484.779
488.91
493.158
497.51
501.948
506.454
511.009
515.588
520.167
524.718
529.215
533.627
537.923
542.071
546.039
549.793
446.784
446.982
447.369
447.94
448.691
449.62
450.726
452.008
453.467
455.103
456.917
458.91
461.081
463.433
465.965
468.678
471.572
474.646
477.9
481.332
484.94
488.72
492.668
496.778
501.042
505.452
509.995
514.658
519.424
524.273
529.186
534.136
539.098
544.042
548.939
553.753
558.449
562.992
567.341
571.458
460.042
460.245
460.645
461.236
462.016
462.983
464.135
465.472
466.996
468.706
470.604
472.69
474.966
477.432
480.09
482.941
485.984
489.221
492.651
496.273
500.085
504.086
508.27
512.633
517.169
521.867
526.718
531.707
536.818
542.033
547.328
552.678
558.056
563.43
568.767
574.028
579.173
584.157
588.936
593.463
473.129
473.338
473.75
474.362
475.17
476.173
477.371
478.763
480.351
482.134
484.114
486.294
488.673
491.253
494.037
497.025
500.219
503.619
507.226
511.039
515.059
519.283
523.708
528.33
533.144
538.141
543.311
548.642
554.117
559.717
565.421
571.203
577.034
582.88
588.705
594.466
600.116
605.602
610.869
615.861
486.042
486.257
486.682
487.313
488.15
489.189
490.432
491.877
493.527
495.383
497.445
499.716
502.197
504.891
507.799
510.924
514.267
517.83
521.614
525.62
529.848
534.298
538.967
543.853
548.952
554.256
559.757
565.443
571.299
577.309
583.45
589.697
596.021
602.388
608.756
615.08
621.303
627.363
633.191
638.717
498.779
499
499.437
500.088
500.951
502.026
503.312
504.81
506.522
508.448
510.59
512.951
515.533
518.339
521.37
524.63
528.121
531.845
535.806
540.004
544.44
549.117
554.032
559.185
564.573
570.191
576.032
582.087
588.342
594.783
601.389
608.138
615
621.941
628.918
635.879
642.76
649.483
655.964
662.112
511.336
511.562
512.011
512.682
513.571
514.681
516.009
517.558
519.329
521.324
523.545
525.994
528.674
531.589
534.741
538.133
541.77
545.654
549.789
554.177
558.821
563.724
568.885
574.307
579.987
585.924
592.113
598.547
605.217
612.11
619.21
626.496
633.944
641.52
649.181
656.87
664.511
672.011
679.262
686.144
523.71
523.942
524.402
525.091
526.006
527.148
528.518
530.116
531.945
534.006
536.303
538.837
541.613
544.634
547.904
551.426
555.205
559.246
563.552
568.127
572.976
578.102
583.508
589.197
595.17
601.429
607.97
614.792
621.889
629.253
636.873
644.735
652.818
661.096
669.526
678.049
686.579
695.001
703.175
710.939
535.897
536.133
536.605
537.311
538.251
539.425
540.834
542.48
544.364
546.489
548.859
551.476
554.344
557.468
560.851
564.499
568.417
572.609
577.082
581.84
586.888
592.233
597.88
603.833
610.097
616.675
623.571
630.785
638.317
646.167
654.33
662.802
671.571
680.621
689.916
699.399
708.977
718.51
727.812
736.657
547.892
548.134
548.617
549.34
550.303
551.507
552.954
554.644
556.582
558.768
561.207
563.903
566.86
570.082
573.575
577.344
581.395
585.734
590.367
595.301
600.543
606.1
611.981
618.191
624.74
631.634
638.88
646.485
654.455
662.799
671.522
680.633
690.134
700.026
710.29
720.879
731.698
742.587
753.298
763.506
559.692
559.939
560.432
561.171
562.157
563.39
564.872
566.605
568.592
570.837
573.342
576.113
579.154
582.471
586.068
589.952
594.129
598.607
603.394
608.496
613.923
619.684
625.789
632.248
639.071
646.27
653.858
661.846
670.251
679.088
688.379
698.146
708.416
719.214
730.549
742.402
754.697
767.26
779.774
791.763
571.294
571.545
572.048
572.802
573.808
575.068
576.584
578.357
580.392
582.691
585.259
588.101
591.221
594.626
598.321
602.314
606.611
611.22
616.151
621.412
627.013
632.967
639.283
645.977
653.061
660.551
668.465
676.823
685.647
694.966
704.817
715.244
726.301
738.048
750.543
763.819
777.853
792.493
807.374
821.802
582.693
582.949
583.46
584.229
585.254
586.539
588.086
589.897
591.975
594.326
596.952
599.86
603.055
606.542
610.329
614.422
618.83
623.562
628.627
634.035
639.798
645.93
652.444
659.355
666.681
674.443
682.661
691.364
700.583
710.36
720.748
731.814
743.647
756.354
770.058
784.882
800.91
818.109
836.15
854.121
593.886
594.146
594.666
595.447
596.49
597.798
599.374
601.219
603.339
605.736
608.417
611.386
614.649
618.212
622.083
626.269
630.779
635.623
640.81
646.353
652.264
658.557
665.25
672.359
679.905
687.912
696.407
705.423
715.002
725.196
736.075
747.733
760.293
773.917
788.808
805.213
823.402
843.619
865.856
889.301
604.869
605.133
605.66
606.453
607.513
608.843
610.444
612.321
614.478
616.919
619.649
622.674
625.999
629.631
633.578
637.848
642.45
647.394
652.691
658.353
664.396
670.833
677.684
684.968
692.707
700.929
709.665
718.955
728.845
739.401
750.707
762.879
776.072
790.499
806.447
824.296
844.564
867.957
895.36
927.458
14.0858
14.1182
14.1475
14.1735
14.1961
14.2151
14.2305
14.2421
14.2498
14.2538
14.2538
14.2498
14.2421
14.2305
14.2151
14.1961
14.1735
14.1475
14.1182
14.0858
40.8632
40.96
41.0475
41.1252
41.1927
41.2496
41.2955
41.3301
41.3533
41.365
41.365
41.3533
41.3301
41.2955
41.2496
41.1927
41.1252
41.0475
40.96
40.8633
66.4211
66.5824
66.7284
66.858
66.9706
67.0654
67.1419
67.1997
67.2384
67.2578
67.2578
67.2384
67.1997
67.1419
67.0654
66.9706
66.858
66.7284
66.5825
66.4212
90.9237
91.1504
91.3555
91.5377
91.696
91.8294
91.937
92.0182
92.0726
92.0999
92.0999
92.0726
92.0182
91.937
91.8294
91.6961
91.5378
91.3555
91.1504
90.9237
114.523
114.817
115.083
115.319
115.524
115.697
115.836
115.942
116.012
116.048
116.048
116.012
115.942
115.836
115.697
115.524
115.319
115.083
114.817
114.523
137.36
137.723
138.052
138.344
138.597
138.811
138.984
139.114
139.201
139.245
139.245
139.201
139.114
138.984
138.811
138.597
138.344
138.052
137.723
137.36
159.561
159.996
160.391
160.741
161.045
161.302
161.509
161.666
161.77
161.823
161.823
161.77
161.666
161.509
161.302
161.045
160.741
160.391
159.997
159.561
181.24
181.752
182.215
182.626
182.984
183.286
183.53
183.713
183.837
183.898
183.898
183.837
183.713
183.53
183.286
182.984
182.627
182.215
181.752
181.241
202.499
203.09
203.626
204.102
204.517
204.866
205.148
205.361
205.504
205.575
205.575
205.504
205.361
205.148
204.866
204.517
204.103
203.626
203.09
202.499
223.424
224.1
224.713
225.258
225.732
226.132
226.455
226.699
226.862
226.944
226.944
226.862
226.699
226.455
226.132
225.732
225.258
224.713
224.1
223.424
244.092
244.858
245.553
246.171
246.709
247.162
247.528
247.805
247.991
248.084
248.084
247.991
247.805
247.529
247.162
246.709
246.171
245.553
244.858
244.092
264.568
265.43
266.212
266.907
267.512
268.023
268.436
268.748
268.956
269.061
269.061
268.956
268.748
268.436
268.023
267.513
266.907
266.212
265.43
264.568
284.909
285.872
286.746
287.524
288.201
288.773
289.235
289.584
289.818
289.935
289.935
289.818
289.584
289.235
288.773
288.202
287.524
286.746
285.872
284.909
305.161
306.233
307.205
308.071
308.825
309.461
309.976
310.364
310.625
310.756
310.756
310.625
310.364
309.976
309.461
308.825
308.071
307.206
306.233
305.162
325.368
326.555
327.632
328.591
329.427
330.132
330.702
331.133
331.422
331.567
331.567
331.422
331.133
330.702
330.132
329.427
328.592
327.632
326.555
325.368
345.564
346.874
348.063
349.122
350.045
350.824
351.454
351.93
352.249
352.409
352.409
352.249
351.93
351.454
350.824
350.045
349.122
348.063
346.874
345.564
365.783
367.224
368.532
369.698
370.714
371.572
372.266
372.79
373.142
373.318
373.318
373.142
372.79
372.266
371.572
370.714
369.699
368.532
367.224
365.783
386.052
387.634
389.071
390.351
391.467
392.409
393.171
393.747
394.134
394.327
394.327
394.134
393.747
393.171
392.409
391.467
390.351
389.071
387.634
386.052
406.4
408.133
409.708
411.111
412.334
413.367
414.202
414.834
415.257
415.47
415.47
415.257
414.834
414.202
413.367
412.334
411.111
409.708
408.134
406.4
426.853
428.749
430.472
432.008
433.346
434.476
435.39
436.081
436.545
436.777
436.777
436.545
436.081
435.39
434.476
433.346
432.008
430.472
428.749
426.853
447.436
449.509
451.392
453.071
454.534
455.769
456.768
457.523
458.029
458.283
458.283
458.029
457.523
456.768
455.769
454.534
453.071
451.392
449.509
447.436
468.176
470.441
472.498
474.332
475.93
477.279
478.369
479.193
479.746
480.023
480.023
479.746
479.193
478.369
477.279
475.93
474.332
472.498
470.441
468.176
489.1
491.575
493.822
495.825
497.569
499.04
500.229
501.128
501.73
502.032
502.032
501.73
501.128
500.229
499.04
497.569
495.825
493.822
491.575
489.101
510.24
512.944
515.398
517.585
519.488
521.093
522.389
523.367
524.023
524.351
524.351
524.023
523.367
522.389
521.093
519.488
517.585
515.398
512.944
510.24
531.628
534.584
537.266
539.655
541.731
543.48
544.891
545.956
546.669
547.026
547.026
546.669
545.956
544.891
543.48
541.731
539.655
537.267
534.584
531.628
553.302
556.537
559.471
562.08
564.345
566.251
567.786
568.943
569.717
570.105
570.105
569.717
568.943
567.786
566.251
564.345
562.08
559.471
556.537
553.303
575.307
578.852
582.063
584.915
587.386
589.461
591.13
592.386
593.224
593.644
593.644
593.224
592.386
591.13
589.461
587.386
584.915
582.063
578.852
575.307
597.693
601.585
605.105
608.224
610.919
613.176
614.987
616.346
617.253
617.706
617.706
617.253
616.346
614.987
613.176
610.919
608.224
605.105
601.585
597.693
620.523
624.807
628.67
632.082
635.02
637.471
639.43
640.897
641.873
642.361
642.361
641.873
640.897
639.43
637.471
635.02
632.082
628.671
624.807
620.523
643.874
648.601
652.848
656.581
659.779
662.434
664.547
666.123
667.168
667.689
667.689
667.168
666.123
664.547
662.434
659.779
656.581
652.848
648.601
643.874
667.841
673.072
677.748
681.831
685.305
688.17
690.436
692.117
693.228
693.78
693.78
693.228
692.117
690.436
688.17
685.305
681.831
677.748
673.072
667.841
692.542
698.353
703.508
707.969
711.729
714.801
717.21
718.987
720.155
720.734
720.734
720.155
718.987
717.211
714.801
711.729
707.969
703.508
698.353
692.542
718.13
724.614
730.302
735.162
739.205
742.468
745.001
746.851
748.061
748.658
748.658
748.061
746.851
745.001
742.468
739.205
735.162
730.302
724.614
718.131
744.809
752.076
758.351
763.616
767.919
771.335
773.95
775.84
777.066
777.668
777.668
777.066
775.84
773.95
771.335
767.919
763.616
758.351
752.076
744.809
772.85
781.038
787.942
793.587
798.086
801.582
804.212
806.087
807.292
807.881
807.881
807.292
806.087
804.212
801.582
798.086
793.587
787.942
781.039
772.85
802.641
811.914
819.448
825.38
829.95
833.403
835.943
837.726
838.859
839.409
839.409
838.859
837.726
835.943
833.403
829.95
825.38
819.448
811.914
802.641
834.765
845.297
853.356
859.354
863.766
866.983
869.289
870.876
871.873
872.354
872.354
871.873
870.876
869.289
866.983
863.766
859.354
853.356
845.297
834.765
870.205
882.079
890.281
895.893
899.772
902.478
904.361
905.632
906.421
906.798
906.798
906.421
905.632
904.361
902.478
899.772
895.893
890.281
882.079
870.205
910.914
923.641
930.93
935.317
938.111
939.967
941.219
942.049
942.558
942.801
942.801
942.558
942.049
941.219
939.967
938.111
935.317
930.93
923.641
910.914
961.767
971.941
975.803
977.666
978.731
979.403
979.846
980.136
980.312
980.396
980.396
980.312
980.136
979.846
979.403
978.731
977.666
975.803
971.941
961.767
14.0506
14.0126
13.9721
13.9294
13.8847
13.8382
13.7901
13.7406
13.69
13.6384
13.586
13.533
13.4797
13.4262
13.3727
13.3195
13.2667
13.2145
13.1631
13.1127
13.0633
13.0152
12.9686
12.9234
12.8799
12.8382
12.7984
12.7607
12.7251
12.6917
12.6607
12.632
12.6059
12.5824
12.5615
12.5432
12.5277
12.5148
12.5048
12.4983
40.7579
40.6444
40.5236
40.3961
40.2625
40.1235
39.9799
39.8322
39.681
39.5271
39.3708
39.2129
39.0539
38.8945
38.7353
38.5768
38.4196
38.2643
38.1114
37.9613
37.8146
37.6717
37.5331
37.399
37.2699
37.1463
37.0283
36.9164
36.8109
36.712
36.6201
36.5355
36.4583
36.3887
36.3269
36.2731
36.2274
36.1902
36.1622
36.1459
66.2455
66.0564
65.855
65.6425
65.4199
65.1885
64.9492
64.7033
64.4518
64.1957
63.9359
63.6735
63.4094
63.1446
62.8802
62.6172
62.3565
62.0989
61.8454
61.5968
61.3538
61.1171
60.8876
60.6657
60.4523
60.2478
60.0528
59.868
59.6937
59.5306
59.379
59.2393
59.112
58.9974
58.8957
58.8073
58.7324
58.6718
58.6268
58.6007
90.6768
90.4111
90.1282
89.8297
89.5172
89.1923
88.8565
88.5116
88.1589
87.8
87.4364
87.0691
86.6997
86.3296
85.9601
85.5927
85.2286
84.8691
84.5154
84.1687
83.83
83.5004
83.1807
82.8719
82.575
82.2906
82.0196
81.7628
81.5208
81.2944
81.084
80.8904
80.7139
80.5551
80.4143
80.292
80.1887
80.1051
80.0432
80.0072
114.203
113.859
113.493
113.107
112.702
112.282
111.848
111.402
110.947
110.484
110.014
109.541
109.065
108.589
108.114
107.641
107.173
106.712
106.258
105.813
105.379
104.956
104.547
104.151
103.771
103.408
103.061
102.733
102.424
102.135
101.867
101.62
101.395
101.193
101.014
100.858
100.727
100.621
100.542
100.496
136.965
136.54
136.088
135.611
135.112
134.593
134.058
133.508
132.947
132.377
131.8
131.218
130.634
130.05
129.467
128.888
128.315
127.75
127.195
126.651
126.12
125.605
125.105
124.623
124.16
123.718
123.296
122.897
122.522
122.171
121.845
121.545
121.273
121.027
120.81
120.622
120.463
120.334
120.239
120.182
159.087
158.578
158.036
157.465
156.867
156.247
155.606
154.949
154.279
153.598
152.909
152.216
151.52
150.824
150.131
149.444
148.763
148.093
147.435
146.791
146.163
145.553
144.962
144.393
143.847
143.325
142.828
142.358
141.916
141.503
141.12
140.768
140.448
140.16
139.906
139.685
139.498
139.347
139.235
139.169
180.684
180.086
179.45
178.78
178.08
177.352
176.602
175.833
175.048
174.251
173.447
172.637
171.825
171.014
170.208
169.407
168.617
167.838
167.074
166.327
165.6
164.894
164.211
163.553
162.922
162.32
161.747
161.206
160.697
160.222
159.782
159.377
159.01
158.68
158.387
158.134
157.92
157.747
157.618
157.542
201.856
201.164
200.429
199.655
198.846
198.006
197.141
196.253
195.349
194.431
193.504
192.572
191.639
190.709
189.783
188.866
187.961
187.07
186.197
185.344
184.514
183.71
182.932
182.184
181.466
180.782
180.132
179.519
178.942
178.405
177.907
177.45
177.034
176.662
176.332
176.046
175.805
175.61
175.465
175.38
222.689
221.899
221.059
220.175
219.251
218.293
217.305
216.293
215.262
214.217
213.162
212.102
211.041
209.984
208.935
207.895
206.87
205.863
204.877
203.914
202.978
202.071
201.196
200.354
199.548
198.78
198.052
197.364
196.719
196.117
195.561
195.051
194.587
194.171
193.804
193.486
193.218
193.002
192.841
192.747
243.259
242.364
241.414
240.413
239.368
238.284
237.167
236.024
234.859
233.679
232.488
231.293
230.098
228.908
227.728
226.56
225.41
224.28
223.175
222.098
221.052
220.039
219.062
218.124
217.227
216.373
215.563
214.799
214.084
213.417
212.801
212.236
211.724
211.265
210.86
210.509
210.214
209.976
209.8
209.698
263.632
262.626
261.558
260.433
259.259
258.042
256.789
255.506
254.2
252.876
251.543
250.205
248.868
247.537
246.219
244.916
243.634
242.376
241.147
239.95
238.788
237.665
236.583
235.544
234.552
233.609
232.715
231.874
231.085
230.352
229.675
229.054
228.492
227.989
227.545
227.162
226.84
226.581
226.39
226.279
283.862
282.738
281.545
280.289
278.979
277.621
276.222
274.791
273.335
271.86
270.375
268.885
267.398
265.92
264.455
263.01
261.589
260.196
258.836
257.513
256.231
254.992
253.8
252.658
251.567
250.531
249.55
248.628
247.765
246.963
246.222
245.545
244.932
244.384
243.901
243.484
243.135
242.855
242.65
242.532
303.997
302.748
301.422
300.027
298.571
297.063
295.511
293.923
292.307
290.672
289.026
287.376
285.73
284.095
282.476
280.881
279.313
277.779
276.282
274.827
273.418
272.058
270.751
269.5
268.307
267.174
266.104
265.097
264.157
263.284
262.479
261.743
261.077
260.483
259.96
259.51
259.133
258.832
258.613
258.489
324.079
322.696
321.229
319.686
318.075
316.408
314.692
312.937
311.152
309.348
307.531
305.711
303.897
302.096
300.315
298.561
296.839
295.155
293.514
291.92
290.379
288.893
287.466
286.101
284.801
283.568
282.404
281.311
280.29
279.343
278.471
277.676
276.956
276.315
275.751
275.267
274.863
274.541
274.308
274.177
344.142
342.617
340.999
339.298
337.523
335.686
333.796
331.864
329.9
327.915
325.917
323.918
321.926
319.95
317.997
316.075
314.191
312.35
310.557
308.819
307.139
305.521
303.969
302.485
301.074
299.737
298.476
297.292
296.189
295.166
294.225
293.367
292.593
291.903
291.298
290.778
290.346
290.004
289.758
289.621
364.218
362.541
360.762
358.892
356.942
354.924
352.849
350.728
348.574
346.397
344.208
342.019
339.839
337.677
335.544
333.446
331.39
329.384
327.433
325.543
323.717
321.961
320.279
318.672
317.145
315.699
314.337
313.061
311.871
310.77
309.758
308.836
308.005
307.265
306.618
306.063
305.603
305.24
304.981
304.838
384.335
382.495
380.544
378.494
376.357
374.145
371.873
369.552
367.195
364.814
362.422
360.032
357.653
355.296
352.971
350.688
348.453
346.274
344.156
342.107
340.13
338.23
336.411
334.677
333.03
331.472
330.005
328.632
327.354
326.172
325.087
324.099
323.209
322.419
321.728
321.138
320.649
320.266
319.993
319.845
404.52
402.505
400.368
398.125
395.787
393.369
390.886
388.35
385.778
383.181
380.574
377.969
375.38
372.818
370.292
367.814
365.39
363.03
360.739
358.523
356.388
354.339
352.379
350.511
348.74
347.066
345.491
344.019
342.649
341.384
340.223
339.168
338.219
337.376
336.641
336.014
335.497
335.093
334.808
334.654
424.796
422.592
420.257
417.805
415.252
412.612
409.903
407.139
404.336
401.509
398.673
395.843
393.032
390.252
387.515
384.831
382.211
379.66
377.188
374.799
372.501
370.296
368.189
366.184
364.284
362.49
360.804
359.229
357.766
356.414
355.176
354.052
353.042
352.147
351.367
350.703
350.157
349.732
349.434
349.275
445.188
442.78
440.23
437.553
434.767
431.89
428.938
425.929
422.88
419.808
416.729
413.66
410.613
407.604
404.645
401.747
398.919
396.171
393.509
390.941
388.472
386.106
383.848
381.701
379.668
377.75
375.951
374.271
372.711
371.272
369.955
368.76
367.688
366.738
365.913
365.212
364.637
364.191
363.88
363.716
465.72
463.091
460.307
457.387
454.35
451.215
448.002
444.73
441.418
438.084
434.747
431.423
428.129
424.878
421.685
418.562
415.518
412.563
409.705
406.95
404.305
401.773
399.358
397.065
394.895
392.851
390.935
389.147
387.488
385.96
384.562
383.296
382.16
381.156
380.285
379.546
378.942
378.475
378.151
377.981
486.418
483.547
480.508
477.323
474.013
470.6
467.105
463.55
459.955
456.342
452.729
449.136
445.579
442.074
438.636
435.277
432.007
428.838
425.775
422.827
419.999
417.296
414.721
412.278
409.968
407.795
405.758
403.86
402.102
400.482
399.003
397.663
396.464
395.405
394.486
393.71
393.076
392.588
392.252
392.077
507.309
504.173
500.855
497.379
493.771
490.055
486.254
482.393
478.495
474.583
470.676
466.797
462.962
459.19
455.494
451.888
448.384
444.991
441.717
438.57
435.554
432.675
429.935
427.338
424.886
422.58
420.422
418.412
416.551
414.84
413.277
411.864
410.6
409.485
408.52
407.705
407.042
406.534
406.185
406.004
528.423
524.994
521.368
517.573
513.638
509.59
505.457
501.265
497.04
492.806
488.586
484.403
480.275
476.22
472.254
468.392
464.643
461.019
457.527
454.174
450.965
447.905
444.997
442.243
439.646
437.206
434.924
432.801
430.837
429.033
427.387
425.899
424.57
423.399
422.387
421.534
420.842
420.312
419.951
419.764
549.793
546.039
542.072
537.924
533.627
529.215
524.719
520.167
515.588
511.009
506.455
501.948
497.51
493.159
488.911
484.78
480.778
476.914
473.197
469.633
466.227
462.983
459.903
456.99
454.245
451.669
449.263
447.026
444.958
443.059
441.329
439.768
438.373
437.147
436.088
435.196
434.475
433.924
433.55
433.358
571.458
567.341
562.992
558.45
553.753
548.939
544.043
539.098
534.136
529.186
524.274
519.424
514.658
509.995
505.452
501.043
496.778
492.668
488.72
484.94
481.333
477.901
474.647
471.573
468.679
465.966
463.434
461.082
458.91
456.918
455.104
453.467
452.008
450.726
449.62
448.691
447.94
447.369
446.982
446.784
593.463
588.936
584.158
579.173
574.028
568.767
563.431
558.056
552.678
547.328
542.033
536.819
531.707
526.718
521.867
517.169
512.634
508.27
504.086
500.086
496.273
492.651
489.222
485.985
482.941
480.091
477.432
474.966
472.69
470.604
468.706
466.996
465.473
464.135
462.983
462.017
461.237
460.645
460.246
460.042
615.861
610.869
605.602
600.116
594.466
588.705
582.881
577.034
571.204
565.422
559.718
554.117
548.642
543.311
538.141
533.144
528.331
523.708
519.283
515.059
511.04
507.226
503.619
500.219
497.026
494.038
491.254
488.673
486.294
484.115
482.134
480.351
478.764
477.372
476.174
475.171
474.362
473.751
473.338
473.129
638.717
633.191
627.363
621.303
615.08
608.757
602.388
596.021
589.697
583.45
577.309
571.3
565.443
559.757
554.256
548.952
543.854
538.968
534.298
529.849
525.62
521.614
517.83
514.268
510.925
507.8
504.892
502.198
499.716
497.445
495.383
493.528
491.878
490.432
489.189
488.15
487.314
486.682
486.257
486.043
662.112
655.964
649.483
642.76
635.879
628.918
621.941
615
608.138
601.39
594.783
588.343
582.087
576.033
570.192
564.574
559.186
554.033
549.117
544.441
540.004
535.806
531.846
528.121
524.63
521.37
518.339
515.534
512.952
510.591
508.448
506.522
504.811
503.313
502.026
500.952
500.088
499.437
499
498.78
686.144
679.262
672.011
664.511
656.87
649.181
641.52
633.944
626.497
619.21
612.11
605.217
598.548
592.113
585.925
579.988
574.307
568.886
563.724
558.822
554.177
549.789
545.655
541.77
538.134
534.741
531.589
528.674
525.994
523.545
521.324
519.33
517.559
516.01
514.681
513.572
512.682
512.012
511.563
511.337
710.939
703.176
695.002
686.579
678.049
669.526
661.096
652.819
644.735
636.873
629.253
621.889
614.792
607.97
601.429
595.171
589.197
583.508
578.102
572.976
568.127
563.552
559.246
555.206
551.427
547.904
544.635
541.614
538.838
536.303
534.007
531.946
530.117
528.519
527.149
526.007
525.091