/*--------------------------------*- C++ -*----------------------------------*\
  =========                 |
  \\      /  F ield         | OpenFOAM: The Open Source CFD Toolbox
   \\    /   O peration     | Website:  https://openfoam.org
    \\  /    A nd           | Version:  6
     \\/     M anipulation  |
\*---------------------------------------------------------------------------*/
FoamFile
{
    version     2.0;
    format      ascii;
    class       volScalarField;
    location    "10";
    object      pos;
}
// * * * * * * * * * * * * * * * * * * * * * * * * * * * * * * * * * * * * * //

dimensions      [0 -3 1 0 0 1 0];

internalField   nonuniform List<scalar> 
8800
(
0.000998547
0.0010026
0.00100447
0.00100546
0.00100613
0.00100675
0.0010074
0.0010081
0.00100886
0.00100968
0.00101053
0.00101143
0.00101236
0.0010133
0.00101427
0.00101524
0.00101622
0.0010172
0.00101817
0.00101914
0.00102009
0.00102104
0.00102197
0.00102288
0.00102378
0.00102465
0.00102549
0.0010263
0.00102708
0.00102782
0.00102852
0.00102919
0.00102983
0.00103044
0.00103104
0.00103162
0.00103218
0.00103272
0.00103324
0.00103373
0.000967321
0.00097193
0.000974054
0.000975102
0.000975808
0.00097644
0.000977095
0.000977802
0.000978563
0.000979375
0.00098023
0.000981119
0.000982034
0.000982967
0.000983911
0.00098486
0.000985809
0.000986751
0.000987685
0.000988607
0.000989514
0.000990404
0.000991275
0.000992125
0.000992952
0.000993753
0.000994524
0.000995262
0.000995963
0.000996625
0.000997244
0.000997826
0.000998392
0.000998947
0.000999489
0.00100002
0.00100053
0.00100103
0.00100152
0.00100197
0.000938844
0.000944738
0.000947126
0.000948215
0.000948901
0.000949511
0.000950149
0.00095084
0.000951586
0.000952381
0.000953216
0.000954082
0.000954969
0.00095587
0.000956777
0.000957683
0.000958583
0.000959473
0.00096035
0.00096121
0.000962051
0.000962871
0.000963671
0.000964447
0.000965199
0.000965923
0.000966617
0.000967277
0.000967899
0.000968482
0.00096902
0.00096955
0.000970087
0.000970617
0.000971141
0.000971659
0.00097217
0.000972671
0.000973158
0.000973627
0.000913594
0.000920466
0.000923202
0.000924375
0.000925063
0.000925651
0.000926261
0.000926923
0.000927639
0.000928402
0.000929202
0.000930028
0.000930872
0.000931725
0.000932579
0.000933429
0.000934269
0.000935096
0.000935906
0.000936698
0.00093747
0.000938221
0.00093895
0.000939658
0.000940343
0.000941003
0.000941635
0.000942236
0.000942801
0.00094333
0.00094384
0.00094439
0.00094494
0.000945492
0.000946046
0.0009466
0.000947153
0.000947702
0.00094824
0.000948763
0.000891289
0.000898873
0.000901934
0.000903225
0.00090394
0.000904516
0.000905097
0.000905724
0.0009064
0.00090712
0.000907872
0.000908648
0.000909437
0.000910232
0.000911026
0.000911814
0.00091259
0.000913353
0.000914099
0.000914828
0.00091554
0.000916234
0.000916911
0.00091757
0.000918212
0.000918835
0.000919436
0.000920011
0.000920557
0.000921075
0.000921668
0.000922271
0.000922884
0.000923505
0.000924135
0.000924771
0.000925411
0.000926048
0.000926678
0.000927294
0.000871548
0.00087971
0.000883058
0.00088447
0.00088522
0.000885788
0.000886342
0.00088693
0.000887561
0.000888231
0.00088893
0.000889649
0.00089038
0.000891116
0.000891849
0.000892577
0.000893295
0.000894002
0.000894697
0.00089538
0.000896051
0.000896711
0.000897361
0.000898002
0.000898635
0.000899258
0.000899869
0.000900464
0.000901042
0.000901668
0.000902352
0.000903055
0.000903774
0.000904508
0.000905254
0.00090601
0.00090677
0.00090753
0.000908284
0.000909022
0.000854083
0.000862698
0.000866299
0.000867826
0.000868612
0.000869176
0.000869703
0.000870252
0.000870837
0.000871456
0.000872101
0.000872765
0.00087344
0.00087412
0.000874801
0.000875479
0.000876153
0.000876821
0.000877485
0.000878144
0.000878801
0.000879457
0.000880113
0.000880771
0.000881432
0.000882096
0.000882761
0.000883426
0.0008841
0.000884887
0.000885703
0.000886545
0.000887408
0.000888288
0.000889181
0.000890084
0.000890991
0.000891898
0.000892796
0.000893677
0.000838643
0.00084757
0.000851388
0.000853024
0.00085385
0.000854412
0.000854915
0.000855428
0.000855969
0.000856541
0.000857137
0.000857752
0.000858379
0.000859015
0.000859656
0.000860301
0.000860948
0.000861599
0.000862256
0.000862919
0.000863591
0.000864275
0.000864973
0.000865685
0.000866413
0.000867158
0.00086792
0.000868696
0.000869562
0.000870508
0.000871491
0.000872502
0.000873537
0.000874589
0.000875651
0.000876719
0.00087779
0.000878856
0.000879911
0.000880946
0.000824997
0.000834088
0.000838084
0.000839824
0.000840691
0.000841257
0.000841741
0.000842223
0.000842727
0.000843258
0.000843814
0.00084439
0.000844983
0.000845589
0.000846207
0.000846837
0.00084748
0.000848138
0.000848813
0.000849508
0.000850226
0.00085097
0.000851742
0.000852542
0.000853373
0.000854236
0.000855135
0.00085607
0.000857153
0.000858287
0.000859461
0.000860666
0.000861893
0.000863132
0.000864376
0.00086562
0.000866859
0.00086809
0.000869305
0.000870496
0.000812932
0.000822041
0.000826172
0.00082801
0.000828923
0.000829498
0.000829971
0.00083043
0.000830906
0.000831407
0.000831934
0.000832484
0.000833057
0.00083365
0.000834264
0.0008349
0.00083556
0.000836248
0.000836967
0.00083772
0.000838512
0.000839345
0.00084022
0.000841138
0.000842101
0.000843113
0.00084418
0.00084534
0.000846627
0.000847969
0.000849353
0.000850766
0.000852198
0.000853634
0.000855065
0.000856486
0.000857893
0.000859285
0.000860655
0.000861998
0.000802254
0.000811245
0.000815468
0.000817396
0.000818359
0.000818952
0.000819422
0.000819868
0.000820325
0.000820807
0.000821318
0.000821857
0.000822425
0.000823022
0.00082365
0.000824311
0.00082501
0.00082575
0.000826535
0.000827371
0.00082826
0.000829205
0.000830208
0.000831269
0.000832388
0.00083357
0.000834813
0.000836234
0.00083774
0.000839303
0.000840909
0.00084254
0.000844183
0.00084582
0.000847436
0.000849029
0.000850597
0.00085214
0.000853654
0.000855137
0.000792791
0.000801542
0.000805811
0.00080782
0.000808837
0.000809456
0.000809933
0.000810375
0.000810825
0.000811301
0.000811809
0.000812351
0.000812929
0.000813546
0.000814205
0.00081491
0.000815666
0.000816476
0.000817347
0.000818283
0.000819289
0.000820366
0.000821516
0.000822738
0.000824031
0.000825405
0.000826875
0.000828525
0.00083026
0.000832054
0.000833887
0.000835741
0.000837595
0.00083943
0.000841225
0.00084298
0.000844695
0.000846375
0.000848017
0.000849624
0.000784388
0.000792794
0.000797062
0.000799141
0.000800216
0.000800869
0.000801362
0.000801811
0.000802266
0.000802747
0.000803264
0.000803822
0.000804425
0.000805077
0.000805783
0.000806547
0.000807374
0.000808271
0.000809243
0.000810294
0.00081143
0.000812652
0.000813962
0.000815358
0.000816837
0.000818409
0.000820126
0.000822005
0.000823974
0.000826003
0.000828067
0.000830142
0.000832203
0.00083423
0.000836193
0.000838096
0.00083994
0.000841738
0.000843488
0.000845199
0.000776908
0.000784883
0.000789103
0.000791238
0.000792372
0.000793067
0.000793586
0.000794053
0.000794523
0.00079502
0.000795558
0.000796145
0.000796785
0.000797484
0.000798249
0.000799084
0.000799995
0.00080099
0.000802074
0.000803251
0.000804527
0.000805904
0.000807383
0.000808961
0.000810632
0.000812398
0.000814378
0.000816487
0.000818693
0.000820957
0.00082325
0.000825541
0.000827802
0.00083001
0.000832126
0.000834158
0.000836111
0.000838003
0.000839839
0.000841632
0.000770226
0.000777705
0.000781832
0.000784007
0.0007852
0.000785943
0.000786498
0.000786992
0.000787486
0.00078801
0.000788579
0.000789204
0.000789892
0.000790649
0.000791482
0.000792397
0.000793403
0.000794504
0.000795707
0.000797018
0.00079844
0.000799976
0.000801627
0.000803394
0.000805263
0.000807257
0.000809469
0.000811806
0.000814248
0.000816746
0.000819261
0.000821761
0.000824211
0.000826585
0.000828834
0.000830973
0.00083301
0.000834964
0.000836857
0.000838712
0.00076423
0.000771171
0.00077516
0.000777357
0.000778607
0.000779403
0.00078
0.00078053
0.000781058
0.000781617
0.000782227
0.000782899
0.000783642
0.000784464
0.000785374
0.000786377
0.000787482
0.000788695
0.000790023
0.00079147
0.000793042
0.000794739
0.000796565
0.00079852
0.000800585
0.000802822
0.000805257
0.00080782
0.000810495
0.000813221
0.000815952
0.000818649
0.000821266
0.000823765
0.000826129
0.000828353
0.000830452
0.00083245
0.000834379
0.000836269
0.000758806
0.000765207
0.000769019
0.00077121
0.000772511
0.000773364
0.00077401
0.000774583
0.000775153
0.000775755
0.000776412
0.000777138
0.000777943
0.000778837
0.000779828
0.000780923
0.000782132
0.00078346
0.000784914
0.0007865
0.000788222
0.000790081
0.000792079
0.000794224
0.000796477
0.000798967
0.000801622
0.000804408
0.000807289
0.000810223
0.000813159
0.000816041
0.000818814
0.000821438
0.000823891
0.000826171
0.000828299
0.000830309
0.000832244
0.000834141
0.000753863
0.000759727
0.000763343
0.000765508
0.000766847
0.000767753
0.000768453
0.000769077
0.000769694
0.000770345
0.000771055
0.00077184
0.000772712
0.000773682
0.000774758
0.000775948
0.000777263
0.000778707
0.000780289
0.000782013
0.000783884
0.000785903
0.00078807
0.000790382
0.000792852
0.000795554
0.000798423
0.000801426
0.000804525
0.000807669
0.000810799
0.00081385
0.000816759
0.000819481
0.00082199
0.000824291
0.000826411
0.000828398
0.000830304
0.000832178
0.000749323
0.000754662
0.000758069
0.00076019
0.000761557
0.000762513
0.000763268
0.000763945
0.000764615
0.00076532
0.000766087
0.000766935
0.000767877
0.000768923
0.000770085
0.00077137
0.000772788
0.000774346
0.00077605
0.000777908
0.000779921
0.000782094
0.000784424
0.000786908
0.000789602
0.000792511
0.00079559
0.000798807
0.000802118
0.000805463
0.000808774
0.000811975
0.000814995
0.000817781
0.00082031
0.000822589
0.000824658
0.000826578
0.000828415
0.00083023
0.000745116
0.000749948
0.000753139
0.000755203
0.000756586
0.000757587
0.000758396
0.000759128
0.000759853
0.000760615
0.000761442
0.000762354
0.000763366
0.00076449
0.000765736
0.000767114
0.000768634
0.000770302
0.000772126
0.000774113
0.000776265
0.000778586
0.000781076
0.000783732
0.000786644
0.000789757
0.000793045
0.000796471
0.000799987
0.000803524
0.000807
0.000810329
0.000813427
0.000816238
0.000818738
0.000820945
0.00082291
0.000824712
0.000826433
0.000828148
0.000741181
0.000745533
0.000748504
0.000750499
0.000751887
0.000752927
0.000753786
0.000754572
0.000755353
0.000756173
0.000757061
0.000758038
0.00075912
0.00076032
0.000761649
0.000763119
0.000764737
0.000766512
0.000768451
0.000770562
0.000772848
0.000775312
0.000777956
0.000780808
0.000783913
0.000787225
0.000790717
0.000794349
0.000798063
0.000801779
0.000805402
0.000808829
0.000811967
0.000814753
0.000817166
0.000819236
0.000821034
0.000822655
0.000824203
0.000825769
0.000737466
0.000741366
0.000744118
0.000746035
0.000747419
0.00074849
0.000749395
0.000750233
0.000751069
0.000751946
0.000752895
0.000753936
0.000755086
0.000756361
0.000757771
0.000759327
0.00076104
0.000762917
0.000764967
0.000767197
0.00076961
0.000772211
0.000774997
0.000778052
0.000781347
0.000784855
0.000788548
0.00079238
0.000796284
0.000800164
0.00080391
0.000807399
0.000810527
0.000813226
0.000815481
0.000817336
0.000818886
0.000820251
0.000821557
0.00082291
0.000733925
0.000737404
0.000739942
0.000741773
0.000743144
0.000744237
0.000745183
0.00074607
0.000746959
0.000747892
0.000748899
0.000750002
0.000751219
0.000752565
0.000754052
0.000755691
0.000757493
0.000759468
0.000761622
0.000763964
0.000766498
0.00076923
0.000772183
0.000775416
0.000778894
0.000782594
0.000786485
0.000790512
0.000794594
0.000798621
0.000802458
0.000805965
0.000809021
0.000811554
0.000813559
0.000815102
0.000816306
0.000817321
0.000818297
0.00081936
0.000730518
0.000733608
0.000735938
0.00073768
0.000739028
0.000740137
0.000741117
0.000742049
0.000742987
0.000743973
0.000745035
0.000746198
0.000747478
0.000748891
0.00075045
0.000752167
0.000754053
0.000756117
0.000758369
0.000760816
0.000763463
0.000766313
0.000769445
0.00077285
0.000776508
0.000780396
0.000784479
0.000788694
0.000792943
0.000797092
0.000800983
0.000804449
0.000807355
0.000809624
0.000811266
0.000812376
0.00081311
0.000813655
0.000814192
0.000814865
0.000727213
0.000729947
0.000732077
0.000733724
0.000735043
0.000736159
0.000737168
0.000738138
0.000739121
0.000740155
0.00074127
0.000742487
0.000743825
0.0007453
0.000746926
0.000748715
0.000750677
0.000752825
0.000755166
0.000757709
0.000760462
0.00076345
0.000766743
0.000770312
0.000774144
0.000778218
0.000782489
0.000786883
0.000791281
0.000795524
0.000799419
0.000802772
0.000805428
0.00080731
0.000808448
0.000808971
0.000809081
0.000809007
0.000808961
0.000809112
0.000723982
0.000726389
0.000728328
0.00072988
0.000731163
0.000732279
0.000733307
0.00073431
0.000735332
0.00073641
0.000737571
0.000738838
0.000740229
0.00074176
0.000743446
0.000745298
0.00074733
0.000749552
0.000751973
0.000754603
0.000757446
0.000760592
0.000764035
0.000767763
0.000771766
0.00077602
0.000780474
0.000785036
0.000789563
0.000793862
0.0007977
0.000800849
0.000803131
0.000804471
0.000804925
0.000804671
0.000803962
0.000803075
0.000802262
0.000801713
0.0007208
0.000722911
0.000724669
0.000726124
0.000727365
0.000728473
0.000729514
0.000730542
0.000731596
0.000732711
0.000733913
0.000735223
0.00073666
0.000738239
0.000739977
0.000741885
0.000743976
0.000746262
0.000748752
0.00075146
0.000754421
0.000757704
0.000761287
0.000765167
0.000769337
0.000773767
0.000778397
0.000783114
0.000787745
0.000792052
0.000795757
0.000798587
0.000800339
0.000800943
0.000800491
0.000799218
0.000797441
0.000795494
0.000793667
0.000792182
0.000717648
0.000719492
0.000721078
0.000722436
0.000723629
0.000724722
0.000725768
0.000726812
0.000727892
0.000729036
0.00073027
0.000731615
0.000733089
0.000734709
0.000736488
0.000738442
0.000740582
0.000742921
0.000745469
0.00074824
0.00075134
0.000754748
0.000758464
0.000762492
0.000766824
0.000771426
0.000776224
0.000781081
0.000785783
0.000790041
0.000793517
0.000795884
0.000796913
0.000796539
0.000794903
0.000792307
0.000789146
0.000785814
0.000782644
0.000779898
0.000714511
0.000716112
0.000717538
0.000718798
0.000719939
0.000721008
0.00072205
0.000723103
0.000724198
0.000725362
0.00072662
0.00072799
0.000729492
0.000731141
0.000732952
0.00073494
0.000737117
0.000739497
0.00074209
0.000744971
0.000748177
0.000751697
0.000755539
0.000759709
0.000764199
0.000768968
0.000773925
0.000778902
0.000783636
0.000787773
0.000790903
0.000792634
0.000792699
0.00079105
0.000787881
0.00078358
0.000778627
0.000773484
0.000768525
0.000764069
0.000711376
0.000712759
0.000714033
0.000715196
0.000716279
0.000717317
0.000718346
0.000719396
0.000720496
0.000721671
0.000722941
0.000724326
0.000725844
0.00072751
0.000729341
0.000731349
0.00073355
0.000735958
0.000738611
0.000741598
0.000744899
0.000748522
0.000752484
0.000756793
0.000761438
0.000766369
0.000771474
0.000776546
0.000781265
0.000785196
0.000787838
0.000788719
0.000787532
0.000784239
0.000779106
0.000772617
0.000765345
0.000757828
0.000750465
0.000743639
0.000708231
0.000709419
0.000710551
0.000711617
0.000712636
0.000713635
0.00071464
0.000715677
0.000716771
0.000717943
0.000719213
0.0007206
0.000722121
0.000723791
0.000725626
0.000727641
0.000729851
0.000732275
0.000735034
0.000738101
0.000741485
0.000745205
0.000749282
0.000753726
0.000758521
0.000763608
0.000768847
0.000773987
0.000778635
0.000782258
0.000784244
0.000784023
0.000781233
0.000775851
0.000768221
0.000758937
0.000748664
0.000738021
0.000727389
0.00071845
0.000705069
0.000706082
0.00070708
0.000708049
0.000708999
0.000709949
0.00071092
0.000711931
0.000713005
0.00071416
0.000715416
0.00071679
0.000718298
0.000719956
0.000721781
0.000723788
0.000725992
0.000728509
0.000731332
0.000734461
0.00073792
0.000741731
0.00074592
0.000750494
0.000755436
0.000760671
0.000766028
0.000771203
0.000775714
0.000778913
0.00078005
0.000778432
0.000773626
0.000765621
0.000754845
0.000742
0.000727835
0.000713059
0.000698616
0.000687162
0.000701885
0.00070274
0.000703612
0.000704483
0.000705358
0.000706249
0.000707172
0.000708144
0.000709182
0.000710305
0.000711529
0.000712873
0.000714353
0.000715984
0.000717782
0.000719766
0.00072204
0.000724613
0.000727482
0.000730667
0.000734194
0.000738094
0.00074239
0.000747092
0.000752175
0.000757547
0.000763004
0.000768175
0.000772478
0.000775122
0.000775194
0.000771846
0.000764551
0.000753296
0.000738589
0.000721233
0.000702004
0.000681511
0.000663533
0.000648662
0.000698673
0.000699386
0.000700138
0.00070091
0.000701703
0.000702523
0.000703384
0.0007043
0.000705287
0.000706359
0.000707534
0.00070883
0.000710265
0.00071185
0.000713607
0.000715644
0.000717968
0.000720574
0.00072348
0.000726715
0.000730309
0.000734294
0.000738694
0.000743519
0.000748736
0.000754234
0.000759768
0.000764892
0.000768908
0.000770859
0.000769635
0.000764197
0.000753889
0.000738668
0.000719104
0.000696069
0.000670265
0.000644204
0.000621091
0.000601711
0.000695431
0.000696016
0.000696652
0.000697322
0.000698023
0.000698761
0.000699544
0.000700386
0.000701302
0.000702304
0.00070341
0.00070464
0.000706013
0.000707538
0.000709344
0.00071142
0.000713762
0.00071639
0.000719331
0.000722614
0.000726273
0.000730339
0.00073484
0.000739782
0.000745123
0.000750731
0.000756316
0.000761349
0.000764998
0.000766117
0.000763365
0.00075547
0.000741596
0.000721631
0.000696149
0.000666036
0.000632215
0.000599748
0.000570203
0.000545236
0.000692156
0.000692625
0.000693148
0.000693711
0.00069431
0.00069495
0.000695639
0.000696388
0.000697212
0.000698123
0.000699141
0.000700286
0.000701583
0.000703167
0.000704994
0.000707073
0.000709423
0.000712072
0.000715047
0.000718378
0.0007221
0.000726245
0.000730841
0.00073589
0.000741343
0.000747042
0.000752649
0.000757546
0.000760752
0.000760913
0.000756421
0.000745726
0.000727758
0.00070226
0.000669721
0.000630629
0.000588936
0.00054779
0.000510249
0.000480273
0.000688847
0.000689208
0.000689619
0.000690068
0.000690554
0.00069108
0.000691654
0.00069229
0.000693002
0.000693802
0.000694712
0.000695798
0.000697145
0.000698718
0.000700531
0.000702606
0.000704967
0.000707638
0.000710648
0.000714028
0.000717811
0.000722031
0.000726713
0.000731859
0.000737407
0.000743176
0.000748776
0.000753493
0.000756192
0.000755291
0.000748895
0.000735134
0.000712639
0.000680926
0.000640388
0.000591794
0.000540351
0.000488626
0.000444548
0.0004061
0.000685503
0.000685762
0.000686059
0.000686386
0.000686744
0.000687139
0.000687578
0.000688078
0.000688659
0.000689328
0.000690204
0.000691305
0.000692619
0.000694165
0.000695965
0.00069804
0.000700414
0.000703112
0.000706159
0.000709587
0.000713428
0.000717717
0.000722476
0.000727704
0.000733328
0.000739143
0.000744705
0.000749205
0.00075135
0.000749326
0.00074094
0.000723982
0.000696737
0.000658366
0.000608683
0.000551165
0.000487431
0.000428089
0.000373334
0.000324325
0.000682124
0.000682284
0.000682461
0.000682656
0.000682871
0.000683114
0.000683398
0.00068374
0.000684173
0.000684833
0.000685679
0.000686727
0.000688002
0.000689525
0.000691318
0.0006934
0.000695793
0.00069852
0.000701606
0.000705081
0.000708977
0.000713325
0.00071815
0.000723443
0.000729123
0.000734959
0.000740455
0.000744709
0.000746275
0.000743118
0.000732762
0.000712671
0.000680813
0.000636139
0.000578593
0.000511774
0.0004363
0.000368221
0.000300826
0.000238968
0.00067871
0.00067877
0.000678821
0.000678869
0.000678923
0.000678994
0.000679102
0.000679318
0.000679723
0.000680299
0.000681073
0.00068207
0.000683313
0.000684822
0.000686615
0.000688711
0.000691129
0.000693889
0.000697015
0.000700535
0.000704479
0.000708879
0.000713756
0.000719097
0.00072481
0.00073064
0.000736044
0.000740034
0.000741023
0.000736781
0.000724585
0.000701637
0.000665636
0.000615276
0.000551798
0.000476557
0.000393688
0.000315217
0.000235374
0.000158473
0.00103418
0.00103461
0.00103499
0.00103533
0.00103562
0.00103586
0.00103605
0.00103618
0.00103628
0.00103634
0.00103634
0.00103628
0.00103618
0.00103605
0.00103586
0.00103562
0.00103533
0.00103499
0.00103461
0.00103419
0.00100241
0.00100281
0.00100317
0.00100349
0.00100377
0.00100399
0.00100417
0.0010043
0.00100438
0.00100442
0.00100442
0.00100438
0.0010043
0.00100417
0.00100399
0.00100377
0.00100349
0.00100317
0.00100281
0.00100241
0.000974072
0.000974488
0.000974868
0.000975207
0.0009755
0.000975743
0.000975933
0.000976069
0.000976155
0.000976196
0.000976196
0.000976155
0.000976069
0.000975933
0.000975743
0.0009755
0.000975208
0.000974869
0.000974488
0.000974073
0.000949264
0.000949736
0.000950172
0.000950563
0.000950904
0.000951188
0.000951412
0.000951575
0.000951678
0.00095173
0.00095173
0.000951678
0.000951575
0.000951412
0.000951188
0.000950904
0.000950564
0.000950172
0.000949737
0.000949265
0.000927888
0.000928451
0.000928974
0.000929447
0.000929862
0.000930211
0.000930489
0.000930693
0.000930825
0.000930891
0.000930892
0.000930825
0.000930693
0.000930489
0.000930212
0.000929863
0.000929448
0.000928974
0.000928452
0.000927889
0.000909737
0.000910418
0.000911054
0.000911633
0.000912144
0.000912577
0.000912923
0.00091318
0.000913349
0.000913436
0.000913436
0.000913349
0.000913181
0.000912924
0.000912577
0.000912145
0.000911634
0.000911055
0.000910419
0.000909738
0.000894533
0.000895351
0.000896117
0.000896819
0.000897442
0.000897971
0.000898399
0.000898719
0.000898931
0.000899042
0.000899042
0.000898931
0.000898719
0.000898399
0.000897972
0.000897442
0.00089682
0.000896118
0.000895351
0.000894534
0.000881952
0.000882917
0.000883826
0.000884661
0.000885405
0.000886042
0.000886559
0.000886948
0.000887208
0.000887345
0.000887345
0.000887208
0.000886948
0.000886559
0.000886043
0.000885406
0.000884661
0.000883827
0.000882918
0.000881953
0.000871656
0.000872772
0.000873826
0.000874799
0.000875671
0.00087642
0.000877031
0.000877493
0.000877804
0.000877969
0.000877969
0.000877804
0.000877494
0.000877032
0.000876421
0.000875671
0.0008748
0.000873826
0.000872772
0.000871657
0.000863307
0.000864569
0.000865767
0.000866879
0.000867879
0.000868743
0.000869451
0.000869988
0.000870351
0.000870544
0.000870545
0.000870351
0.000869988
0.000869451
0.000868744
0.000867879
0.000866879
0.000865768
0.00086457
0.000863308
0.000856585
0.000857985
0.00085932
0.000860565
0.000861691
0.000862669
0.000863473
0.000864085
0.0008645
0.000864723
0.000864723
0.000864501
0.000864085
0.000863473
0.000862669
0.000861692
0.000860566
0.000859321
0.000857986
0.000856586
0.000851196
0.000852721
0.000854182
0.000855553
0.000856799
0.000857886
0.000858784
0.00085947
0.000859938
0.000860189
0.000860189
0.000859938
0.000859471
0.000858784
0.000857887
0.0008568
0.000855553
0.000854183
0.000852722
0.000851196
0.000846876
0.00084851
0.000850084
0.000851569
0.000852927
0.000854118
0.000855105
0.000855863
0.000856381
0.000856661
0.000856661
0.000856381
0.000855863
0.000855106
0.000854118
0.000852928
0.000851569
0.000850085
0.000848511
0.000846877
0.000843394
0.000845118
0.000846789
0.000848374
0.000849834
0.00085112
0.000852192
0.000853017
0.000853584
0.000853893
0.000853893
0.000853584
0.000853017
0.000852192
0.00085112
0.000849834
0.000848375
0.000846789
0.000845119
0.000843394
0.000840538
0.000842336
0.000844089
0.000845763
0.000847313
0.000848686
0.000849834
0.000850722
0.000851333
0.000851668
0.000851668
0.000851333
0.000850722
0.000849834
0.000848686
0.000847313
0.000845763
0.000844089
0.000842336
0.000840539
0.000838138
0.000839989
0.000841806
0.000843554
0.000845182
0.00084663
0.000847845
0.000848787
0.000849437
0.000849795
0.000849795
0.000849437
0.000848787
0.000847845
0.00084663
0.000845182
0.000843554
0.000841806
0.000839989
0.000838138
0.000836028
0.000837911
0.000839774
0.00084158
0.000843272
0.000844782
0.000846052
0.000847037
0.00084772
0.000848097
0.000848097
0.00084772
0.000847038
0.000846052
0.000844782
0.000843272
0.000841581
0.000839775
0.000837911
0.000836028
0.000834055
0.000835946
0.000837836
0.000839682
0.000841421
0.000842978
0.000844289
0.000845307
0.000846013
0.000846405
0.000846405
0.000846013
0.000845307
0.000844289
0.000842978
0.000841421
0.000839682
0.000837837
0.000835947
0.000834055
0.000832067
0.000833941
0.000835835
0.000837701
0.000839468
0.000841053
0.000842389
0.000843425
0.000844144
0.000844545
0.000844545
0.000844144
0.000843425
0.000842389
0.000841053
0.000839468
0.000837701
0.000835835
0.000833942
0.000832068
0.000829909
0.000831735
0.000833606
0.000835467
0.000837239
0.000838829
0.000840169
0.000841206
0.000841926
0.000842328
0.000842328
0.000841926
0.000841206
0.000840169
0.000838829
0.000837239
0.000835467
0.000833607
0.000831736
0.00082991
0.000827411
0.000829152
0.000830968
0.000832793
0.000834538
0.000836104
0.00083742
0.000838435
0.000839139
0.000839534
0.000839534
0.000839139
0.000838435
0.00083742
0.000836104
0.000834538
0.000832793
0.000830968
0.000829153
0.000827412
0.00082438
0.000825989
0.000827706
0.000829453
0.000831133
0.000832634
0.00083389
0.000834853
0.000835521
0.000835897
0.000835897
0.000835521
0.000834853
0.00083389
0.000832634
0.000831133
0.000829453
0.000827706
0.00082599
0.000824381
0.000820589
0.000822003
0.000823563
0.000825176
0.000826734
0.000828115
0.000829263
0.000830133
0.000830736
0.000831078
0.000831078
0.000830736
0.000830133
0.000829263
0.000828114
0.000826733
0.000825176
0.000823563
0.000822004
0.00082059
0.00081576
0.000816896
0.000818219
0.000819617
0.000820975
0.000822157
0.000823131
0.000823907
0.000824466
0.000824786
0.000824786
0.000824466
0.000823906
0.000823131
0.000822157
0.000820975
0.000819617
0.000818219
0.000816897
0.000815761
0.000809551
0.000810293
0.000811265
0.000812334
0.00081341
0.000814474
0.000815347
0.000816003
0.000816464
0.00081673
0.00081673
0.000816464
0.000816002
0.000815347
0.000814474
0.00081341
0.000812334
0.000811265
0.000810293
0.000809552
0.000801528
0.000801714
0.000802173
0.000802939
0.000803847
0.000804648
0.000805265
0.000805716
0.00080604
0.000806235
0.000806235
0.00080604
0.000805716
0.000805265
0.000804647
0.000803847
0.000802938
0.000802173
0.000801714
0.000801529
0.000791138
0.000790538
0.000790562
0.000791019
0.000791533
0.000791935
0.000792201
0.000792381
0.000792524
0.000792626
0.000792626
0.000792524
0.00079238
0.000792201
0.000791934
0.000791532
0.000791018
0.000790561
0.000790538
0.000791139
0.000777666
0.000776305
0.000775857
0.000775758
0.000775694
0.000775557
0.00077537
0.000775206
0.000775123
0.000775108
0.000775108
0.000775123
0.000775206
0.000775369
0.000775556
0.000775694
0.000775757
0.000775857
0.000776304
0.000777666
0.000760437
0.000758375
0.00075717
0.000756269
0.000755432
0.00075461
0.000753867
0.000753289
0.000752933
0.000752778
0.000752778
0.000752933
0.000753289
0.000753866
0.000754609
0.000755431
0.000756268
0.000757169
0.000758375
0.000760437
0.00073891
0.000735781
0.000733503
0.000731535
0.000729732
0.000728092
0.000726704
0.000725654
0.000724988
0.000724674
0.000724674
0.000724988
0.000725653
0.000726703
0.000728091
0.000729731
0.000731534
0.000733502
0.000735781
0.000738909
0.000712025
0.000707421
0.000703734
0.000700446
0.000697522
0.000694975
0.000692893
0.000691343
0.000690351
0.000689871
0.00068987
0.000690351
0.000691343
0.000692893
0.000694974
0.000697521
0.000700445
0.000703732
0.00070742
0.000712024
0.000678559
0.000672082
0.000666689
0.000661906
0.0006578
0.00065434
0.000651583
0.000649555
0.000648254
0.000647616
0.000647616
0.000648254
0.000649555
0.000651583
0.000654339
0.000657799
0.000661905
0.000666688
0.00067208
0.000678558
0.000637264
0.000628558
0.000621294
0.000615005
0.000609809
0.000605555
0.000602234
0.000599818
0.000598263
0.000597496
0.000597496
0.000598263
0.000599817
0.000602233
0.000605554
0.000609808
0.000615003
0.000621293
0.000628556
0.000637262
0.000586932
0.000575834
0.000566848
0.000559359
0.000553268
0.000548437
0.000544749
0.000542101
0.000540406
0.000539569
0.000539569
0.000540406
0.000542101
0.000544748
0.000548436
0.000553267
0.000559358
0.000566847
0.000575833
0.00058693
0.000527001
0.000513709
0.000503198
0.000494883
0.000488367
0.000483353
0.00047961
0.000476963
0.000475279
0.000474448
0.000474448
0.000475279
0.000476962
0.00047961
0.000483353
0.000488366
0.000494882
0.000503196
0.000513707
0.000527
0.000457114
0.00044191
0.000430705
0.000422329
0.000416027
0.000411324
0.00040789
0.000405498
0.000403989
0.000403241
0.000403241
0.000403989
0.000405498
0.00040789
0.000411323
0.000416027
0.000422328
0.000430704
0.000441908
0.000457113
0.000377177
0.000361303
0.00035065
0.000343167
0.000337764
0.000333854
0.000331066
0.000329156
0.000327959
0.000327359
0.000327359
0.000327959
0.000329156
0.000331066
0.000333853
0.000337764
0.000343167
0.000350649
0.000361301
0.000377176
0.000288248
0.000273704
0.000265065
0.000259381
0.00025543
0.000252659
0.000250737
0.000249446
0.00024864
0.000248222
0.000248222
0.00024864
0.000249446
0.000250737
0.000252659
0.00025543
0.00025938
0.000265065
0.000273703
0.000288247
0.000192455
0.000181874
0.000176499
0.000173142
0.000170869
0.000169331
0.000168303
0.000167631
0.000167209
0.000166956
0.000166956
0.000167209
0.000167631
0.000168303
0.000169331
0.000170869
0.000173142
0.000176499
0.000181874
0.000192455
9.37912e-05
8.94254e-05
8.75689e-05
8.6351e-05
8.55223e-05
8.49941e-05
8.46673e-05
8.44653e-05
8.43328e-05
8.42028e-05
8.42028e-05
8.43328e-05
8.44653e-05
8.46673e-05
8.49941e-05
8.55223e-05
8.6351e-05
8.75688e-05
8.94253e-05
9.3791e-05
0.00103373
0.00103324
0.00103272
0.00103218
0.00103162
0.00103104
0.00103044
0.00102983
0.00102919
0.00102852
0.00102782
0.00102708
0.0010263
0.00102549
0.00102465
0.00102378
0.00102288
0.00102197
0.00102104
0.00102009
0.00101914
0.00101817
0.0010172
0.00101622
0.00101524
0.00101427
0.0010133
0.00101236
0.00101143
0.00101053
0.00100968
0.00100886
0.0010081
0.0010074
0.00100675
0.00100613
0.00100546
0.00100447
0.0010026
0.000998541
0.00100198
0.00100152
0.00100104
0.00100054
0.00100002
0.00099949
0.000998948
0.000998393
0.000997827
0.000997245
0.000996626
0.000995965
0.000995264
0.000994526
0.000993754
0.000992953
0.000992126
0.000991276
0.000990405
0.000989515
0.000988608
0.000987686
0.000986752
0.000985809
0.000984861
0.000983912
0.000982968
0.000982035
0.00098112
0.000980231
0.000979376
0.000978564
0.000977802
0.000977096
0.000976441
0.000975809
0.000975102
0.000974055