/*--------------------------------*- C++ -*----------------------------------*\
  =========                 |
  \\      /  F ield         | OpenFOAM: The Open Source CFD Toolbox
   \\    /   O peration     | Website:  https://openfoam.org
    \\  /    A nd           | Version:  6
     \\/     M anipulation  |
\*---------------------------------------------------------------------------*/
FoamFile
{
    version     2.0;
    format      ascii;
    class       volScalarField;
    location    "10";
    object      source;
}
// * * * * * * * * * * * * * * * * * * * * * * * * * * * * * * * * * * * * * //

dimensions      [0 -3 0 0 0 1 0];

internalField   nonuniform List<scalar> 
8800
(
0.00162563
0.00162552
0.00162612
0.0016275
0.00162913
0.00163108
0.00163332
0.00163586
0.00163868
0.00164177
0.00164514
0.00164876
0.00165264
0.00165676
0.00166111
0.00166568
0.00167046
0.00167543
0.00168059
0.00168591
0.00169138
0.00169699
0.00170272
0.00170854
0.00171445
0.00172041
0.00172642
0.00173244
0.00173845
0.00174444
0.00175037
0.00175621
0.00176189
0.00176741
0.00177276
0.00177794
0.00178291
0.00178765
0.00179214
0.00179636
0.00137976
0.00137564
0.0013757
0.00137706
0.00137876
0.00138068
0.00138284
0.00138525
0.00138791
0.00139083
0.00139401
0.00139745
0.00140112
0.00140504
0.00140918
0.00141354
0.00141811
0.00142287
0.00142781
0.00143292
0.00143817
0.00144356
0.00144906
0.00145466
0.00146033
0.00146607
0.00147184
0.00147763
0.00148342
0.00148918
0.00149485
0.0015003
0.0015055
0.00151056
0.00151544
0.00152015
0.00152465
0.00152893
0.00153296
0.00153674
0.00116465
0.00115921
0.00115868
0.00115985
0.00116146
0.00116331
0.00116537
0.00116765
0.00117016
0.00117292
0.00117593
0.00117918
0.00118267
0.00118639
0.00119033
0.00119448
0.00119882
0.00120335
0.00120805
0.00121289
0.00121787
0.00122297
0.00122817
0.00123345
0.0012388
0.00124419
0.00124962
0.00125504
0.00126045
0.00126576
0.0012708
0.00127547
0.00128
0.00128437
0.00128857
0.00129259
0.00129641
0.00130002
0.00130342
0.00130657
0.000978104
0.000973439
0.000972795
0.000973712
0.000975124
0.000976806
0.000978714
0.000980846
0.000983208
0.000985805
0.000988637
0.000991702
0.000994994
0.000998501
0.00100221
0.00100612
0.0010102
0.00101443
0.00101881
0.00102332
0.00102793
0.00103263
0.0010374
0.00104222
0.00104709
0.00105198
0.00105687
0.00106174
0.0010665
0.00107102
0.00107492
0.00107874
0.00108241
0.00108591
0.00108926
0.00109243
0.00109543
0.00109824
0.00110086
0.00110327
0.000818399
0.000815287
0.000814891
0.000815665
0.00081688
0.000818377
0.000820114
0.000822079
0.000824272
0.00082669
0.000829331
0.000832189
0.000835253
0.000838512
0.000841948
0.000845546
0.000849286
0.00085315
0.000857118
0.000861172
0.000865293
0.000869465
0.000873671
0.000877896
0.000882125
0.00088634
0.000890508
0.000894565
0.000898362
0.00090153
0.000904477
0.000907322
0.000910021
0.00091257
0.000914976
0.000917237
0.000919352
0.000921314
0.000923116
0.00092475
0.000682932
0.000681699
0.000681747
0.000682484
0.000683546
0.000684867
0.000686426
0.000688212
0.000690217
0.000692435
0.000694858
0.000697474
0.000700269
0.000703227
0.000706328
0.000709551
0.000712876
0.00071628
0.000719744
0.000723249
0.000726775
0.000730308
0.000733832
0.000737333
0.000740794
0.000744187
0.000747457
0.000750487
0.000753014
0.000754948
0.000756901
0.000758744
0.000760459
0.000762053
0.000763535
0.000764907
0.000766168
0.000767314
0.000768338
0.000769232
0.000568772
0.000569576
0.000570154
0.000570916
0.000571859
0.000573018
0.0005744
0.000575996
0.000577798
0.000579793
0.000581968
0.000584307
0.000586792
0.000589401
0.000592113
0.000594904
0.000597751
0.00060063
0.000603522
0.000606407
0.000609267
0.000612089
0.000614858
0.000617559
0.00062017
0.000622648
0.000624909
0.000626776
0.000627896
0.000628903
0.000629898
0.000630794
0.000631594
0.000632311
0.000632957
0.000633536
0.000634046
0.000634481
0.000634831
0.000635087
0.000473044
0.000475888
0.000477016
0.000477831
0.000478675
0.000479683
0.000480889
0.000482291
0.000483876
0.00048563
0.000487536
0.000489572
0.000491716
0.000493945
0.000496234
0.000498558
0.000500892
0.000503214
0.000505502
0.000507738
0.000509907
0.000511995
0.000513989
0.000515871
0.00051761
0.000519146
0.00052036
0.000521016
0.000521072
0.000521242
0.00052138
0.000521446
0.000521456
0.000521429
0.000521379
0.000521311
0.000521218
0.000521091
0.000520916
0.000520675
0.000393062
0.000397816
0.000399469
0.000400345
0.000401102
0.000401967
0.000403001
0.000404206
0.000405571
0.000407077
0.000408702
0.000410424
0.000412216
0.000414055
0.000415912
0.000417763
0.000419583
0.00042135
0.000423043
0.000424645
0.000426143
0.000427524
0.000428773
0.000429871
0.000430779
0.000431416
0.000431631
0.000431145
0.000430526
0.000429978
0.000429402
0.000428789
0.000428164
0.000427554
0.000426975
0.000426429
0.000425905
0.000425386
0.000424852
0.000424275
0.000326395
0.000332833
0.000334964
0.000335897
0.000336574
0.000337305
0.000338173
0.000339188
0.000340336
0.000341597
0.000342946
0.000344358
0.000345808
0.000347267
0.000348711
0.000350112
0.000351447
0.000352695
0.000353837
0.000354857
0.000355743
0.000356483
0.000357063
0.000357461
0.00035763
0.000357484
0.000356866
0.000355528
0.000354367
0.000353248
0.000352117
0.000350988
0.000349894
0.000348867
0.000347929
0.000347076
0.000346293
0.000345552
0.000344825
0.000344073
0.0002709
0.000278745
0.000281294
0.000282278
0.00028288
0.000283485
0.000284199
0.000285035
0.000285979
0.000287008
0.000288099
0.000289224
0.000290356
0.000291468
0.000292535
0.000293532
0.000294436
0.000295227
0.000295889
0.000296407
0.000296769
0.000296965
0.000296981
0.000296793
0.000296348
0.000295537
0.000294138
0.000292406
0.000290835
0.000289295
0.000287768
0.000286281
0.000284875
0.000283588
0.000282448
0.000281445
0.000280559
0.000279751
0.000278981
0.000278199
0.000224732
0.00023368
0.000236585
0.000237614
0.00023815
0.000238641
0.000239214
0.000239887
0.000240647
0.000241469
0.000242329
0.0002432
0.000244054
0.000244865
0.000245609
0.000246263
0.000246806
0.000247219
0.000247488
0.0002476
0.000247543
0.00024731
0.000246884
0.000246242
0.000245328
0.00024402
0.000242084
0.000240135
0.000238288
0.000236473
0.000234694
0.000232992
0.000231414
0.000230003
0.000228795
0.000227777
0.000226921
0.000226173
0.000225487
0.000224795
0.000186326
0.000196071
0.000199273
0.000200344
0.000200822
0.000201213
0.000201663
0.000202194
0.000202794
0.000203439
0.000204104
0.000204761
0.000205385
0.00020595
0.000206434
0.000206816
0.000207076
0.000207198
0.000207169
0.000206977
0.000206614
0.000206069
0.00020533
0.000204371
0.000203144
0.000201528
0.000199279
0.000197211
0.000195212
0.000193249
0.000191347
0.000189553
0.000187921
0.000186498
0.000185335
0.00018441
0.000183689
0.000183101
0.000182596
0.000182091
0.00015437
0.000164618
0.00016806
0.000169172
0.000169605
0.000169911
0.000170258
0.000170671
0.00017114
0.000171641
0.000172149
0.000172638
0.000173083
0.000173461
0.000173751
0.000173933
0.000173991
0.000173909
0.000173677
0.000173284
0.000172723
0.000171983
0.000171053
0.000169907
0.000168494
0.000166608
0.000164357
0.00016227
0.000160227
0.000158227
0.000156308
0.000154526
0.000152938
0.000151588
0.00015056
0.000149815
0.000149313
0.000148948
0.000148696
0.000148458
0.000127778
0.000138247
0.000141881
0.000143037
0.000143437
0.000143676
0.000143939
0.000144259
0.000144626
0.000145018
0.000145409
0.000145776
0.000146094
0.000146343
0.000146503
0.000146556
0.000146488
0.000146287
0.00014594
0.000145441
0.000144781
0.000143953
0.000142944
0.000141727
0.000140255
0.000138236
0.000136108
0.000134089
0.00013209
0.00013014
0.000128294
0.000126611
0.000125141
0.000123903
0.000123093
0.000122612
0.000122406
0.000122378
0.000122453
0.000122522
0.000105676
0.000116068
0.000119853
0.000121065
0.000121447
0.000121637
0.000121838
0.000122088
0.000122381
0.000122697
0.00012301
0.000123298
0.000123539
0.000123713
0.000123803
0.000123793
0.00012367
0.000123423
0.000123042
0.000122521
0.000121852
0.000121028
0.000120038
0.000118851
0.00011744
0.000115423
0.000113464
0.000111583
0.000109662
0.000107813
0.000106119
0.000104617
0.000103374
0.000102436
0.000101903
0.000101734
0.000101868
0.000102201
0.000102634
0.000103046
8.73287e-05
9.73864e-05
0.000101246
0.000102529
0.00010292
0.000103079
0.000103237
0.000103441
0.000103688
0.000103958
0.000104229
0.000104478
0.000104687
0.000104835
0.000104908
0.000104892
0.000104775
0.000104547
0.000104201
0.00010373
0.000103126
0.000102385
0.000101496
0.000100366
9.89759e-05
9.71708e-05
9.54278e-05
9.3743e-05
9.20589e-05
9.04402e-05
8.89675e-05
8.77122e-05
8.67505e-05
8.61372e-05
8.59458e-05
8.6149e-05
8.66764e-05
8.74158e-05
8.82467e-05
8.90347e-05
7.21108e-05
8.16385e-05
8.54881e-05
8.68315e-05
8.72522e-05
8.74118e-05
8.75505e-05
8.77315e-05
8.7957e-05
8.82099e-05
8.84689e-05
8.87124e-05
8.89261e-05
8.90869e-05
8.91849e-05
8.92068e-05
8.91424e-05
8.8983e-05
8.87213e-05
8.83511e-05
8.78668e-05
8.72622e-05
8.65284e-05
8.56154e-05
8.43299e-05
8.2836e-05
8.13597e-05
7.99214e-05
7.84966e-05
7.71452e-05
7.5953e-05
7.50066e-05
7.43914e-05
7.41696e-05
7.43943e-05
7.50401e-05
7.60269e-05
7.72302e-05
7.85092e-05
7.97155e-05
5.95029e-05
6.83553e-05
7.21164e-05
7.35029e-05
7.39631e-05
7.4139e-05
7.42785e-05
7.44564e-05
7.46815e-05
7.49405e-05
7.52143e-05
7.54834e-05
7.57329e-05
7.59447e-05
7.61081e-05
7.62118e-05
7.62466e-05
7.62051e-05
7.60804e-05
7.58669e-05
7.55588e-05
7.515e-05
7.4631e-05
7.39453e-05
7.28875e-05
7.17192e-05
7.05436e-05
6.93908e-05
6.82651e-05
6.72281e-05
6.63725e-05
6.57993e-05
6.56036e-05
6.58529e-05
6.6584e-05
6.77639e-05
6.92975e-05
7.10429e-05
7.28383e-05
7.45195e-05
4.90721e-05
5.71485e-05
6.07525e-05
6.21595e-05
6.2663e-05
6.28692e-05
6.30271e-05
6.32205e-05
6.34648e-05
6.3751e-05
6.40629e-05
6.4383e-05
6.46972e-05
6.49903e-05
6.52518e-05
6.5472e-05
6.56427e-05
6.5757e-05
6.58087e-05
6.57921e-05
6.57015e-05
6.55303e-05
6.52685e-05
6.47992e-05
6.40755e-05
6.32559e-05
6.241e-05
6.15771e-05
6.07866e-05
6.01092e-05
5.96486e-05
5.95205e-05
5.98311e-05
6.0651e-05
6.20025e-05
6.38355e-05
6.60328e-05
6.84279e-05
7.08347e-05
7.30705e-05
4.04576e-05
4.7697e-05
5.1086e-05
5.24884e-05
5.30334e-05
5.32797e-05
5.34706e-05
5.36955e-05
5.39761e-05
5.43079e-05
5.46774e-05
5.50698e-05
5.54717e-05
5.58703e-05
5.62559e-05
5.66198e-05
5.69547e-05
5.72541e-05
5.75122e-05
5.77233e-05
5.78817e-05
5.79807e-05
5.80095e-05
5.77961e-05
5.74293e-05
5.69751e-05
5.64843e-05
5.60038e-05
5.55853e-05
5.53161e-05
5.53161e-05
5.57187e-05
5.66422e-05
5.81593e-05
6.0276e-05
6.29168e-05
6.59321e-05
6.91223e-05
7.22707e-05
7.51729e-05
3.33576e-05
3.9734e-05
4.28619e-05
4.42334e-05
4.48137e-05
4.51056e-05
4.53404e-05
4.561e-05
4.59411e-05
4.63333e-05
4.67765e-05
4.72579e-05
4.77657e-05
4.82889e-05
4.88185e-05
4.93467e-05
4.98671e-05
5.03736e-05
5.08608e-05
5.13231e-05
5.17547e-05
5.21494e-05
5.24594e-05
5.2568e-05
5.25664e-05
5.2489e-05
5.23754e-05
5.22793e-05
5.22741e-05
5.24694e-05
5.30085e-05
5.40467e-05
5.57171e-05
5.80924e-05
6.11589e-05
6.4806e-05
6.88404e-05
7.30181e-05
7.70838e-05
8.08062e-05
2.75192e-05
3.30361e-05
3.58692e-05
3.71848e-05
3.77906e-05
3.81293e-05
3.84152e-05
3.87393e-05
3.91319e-05
3.95965e-05
4.01258e-05
4.07093e-05
4.13367e-05
4.19986e-05
4.2687e-05
4.33949e-05
4.41165e-05
4.48464e-05
4.55794e-05
4.63103e-05
4.70335e-05
4.77417e-05
4.83337e-05
4.87934e-05
4.91672e-05
4.94782e-05
4.97634e-05
5.00858e-05
5.05419e-05
5.12701e-05
5.24447e-05
5.42497e-05
5.68355e-05
6.02735e-05
6.45243e-05
6.94312e-05
7.47437e-05
8.01602e-05
8.53769e-05
9.01282e-05
2.27298e-05
2.74153e-05
2.99323e-05
3.11693e-05
3.17889e-05
3.2172e-05
3.25126e-05
3.28979e-05
3.33602e-05
3.39059e-05
3.45305e-05
3.52257e-05
3.59828e-05
3.67936e-05
3.76511e-05
3.85495e-05
3.94834e-05
4.04482e-05
4.14393e-05
4.24517e-05
4.34808e-05
4.45042e-05
4.54021e-05
4.62178e-05
4.69721e-05
4.76825e-05
4.83886e-05
4.91672e-05
5.01416e-05
5.14865e-05
5.34168e-05
5.61527e-05
5.98665e-05
6.4626e-05
7.03582e-05
7.68473e-05
8.37696e-05
9.07511e-05
9.74268e-05
0.000103488
1.88105e-05
2.27119e-05
2.49035e-05
2.60434e-05
2.6664e-05
2.70866e-05
2.74824e-05
2.79326e-05
2.84699e-05
2.91028e-05
2.98292e-05
3.06427e-05
3.15361e-05
3.25027e-05
3.35366e-05
3.46327e-05
3.57864e-05
3.6994e-05
3.82517e-05
3.95551e-05
4.08995e-05
4.22191e-05
4.34473e-05
4.46263e-05
4.57676e-05
4.68897e-05
4.80412e-05
4.93188e-05
5.08794e-05
5.29438e-05
5.57788e-05
5.96509e-05
6.47596e-05
7.11669e-05
7.87563e-05
8.72369e-05
9.6194e-05
0.000105163
0.000113704
0.000121453
1.56104e-05
1.87896e-05
2.06575e-05
2.16866e-05
2.22962e-05
2.27517e-05
2.32008e-05
2.37171e-05
2.43322e-05
2.50561e-05
2.58883e-05
2.68243e-05
2.78585e-05
2.89853e-05
3.01999e-05
3.14981e-05
3.28765e-05
3.43322e-05
3.58626e-05
3.74642e-05
3.91316e-05
4.07331e-05
4.22983e-05
4.38443e-05
4.53789e-05
4.69267e-05
4.85513e-05
5.03768e-05
5.26042e-05
5.55129e-05
5.94358e-05
6.46993e-05
7.15366e-05
8.0002e-05
8.99235e-05
0.000100917
0.000112454
0.000123962
0.000134907
0.000144852
1.30024e-05
1.5531e-05
1.70868e-05
1.79971e-05
1.85853e-05
1.90666e-05
1.95657e-05
2.01475e-05
2.08414e-05
2.16581e-05
2.25985e-05
2.36596e-05
2.48369e-05
2.61263e-05
2.75241e-05
2.90271e-05
3.0633e-05
3.23401e-05
3.41477e-05
3.60502e-05
3.79986e-05
3.99049e-05
4.18119e-05
4.37277e-05
4.56624e-05
4.76512e-05
4.97796e-05
5.22092e-05
5.51978e-05
5.91003e-05
6.43347e-05
7.1304e-05
8.02849e-05
9.13223e-05
0.000104176
0.000118346
0.00013317
0.000147941
0.00016201
0.000174842
1.08795e-05
1.28349e-05
1.40985e-05
1.48876e-05
1.54469e-05
1.59476e-05
1.64928e-05
1.71384e-05
1.79111e-05
1.88214e-05
1.98711e-05
2.10585e-05
2.23804e-05
2.38338e-05
2.54161e-05
2.71254e-05
2.89603e-05
3.09208e-05
3.30092e-05
3.52256e-05
3.74131e-05
3.96245e-05
4.18719e-05
4.4158e-05
4.64982e-05
4.89435e-05
5.16091e-05
5.47058e-05
5.85647e-05
6.36378e-05
7.04527e-05
7.95113e-05
9.11482e-05
0.000105399
0.000121942
0.000140141
0.000159171
0.000178165
0.000196337
0.000213008
9.15171e-06
1.06133e-05
1.16115e-05
1.22829e-05
1.28093e-05
1.33246e-05
1.39126e-05
1.46203e-05
1.54713e-05
1.64755e-05
1.76355e-05
1.89501e-05
2.04175e-05
2.20358e-05
2.38036e-05
2.572e-05
2.77849e-05
2.99995e-05
3.23769e-05
3.48157e-05
3.72767e-05
3.97967e-05
4.23812e-05
4.50351e-05
4.7784e-05
5.07002e-05
5.39375e-05
5.77698e-05
6.26224e-05
6.90716e-05
7.77859e-05
8.93964e-05
0.000104316
0.000122577
0.000143765
0.000167087
0.000191531
0.000216039
0.000239659
0.000261491
7.74357e-06
8.79013e-06
9.5546e-06
1.01172e-05
1.06107e-05
1.11384e-05
1.17674e-05
1.25365e-05
1.34661e-05
1.45653e-05
1.58367e-05
1.728e-05
1.88942e-05
2.06787e-05
2.26331e-05
2.47574e-05
2.70527e-05
2.95222e-05
3.21528e-05
3.48001e-05
3.75272e-05
4.03465e-05
4.32588e-05
4.62734e-05
4.94299e-05
5.28279e-05
5.66699e-05
6.13098e-05
6.72917e-05
7.535e-05
8.63346e-05
0.000101046
0.000120006
0.000143259
0.000170296
0.000200151
0.00023161
0.000263389
0.000294345
0.000322905
6.59214e-06
7.29924e-06
7.86521e-06
8.33277e-06
8.79783e-06
9.33923e-06
1.001e-05
1.08418e-05
1.18519e-05
1.30484e-05
1.44341e-05
1.60088e-05
1.77723e-05
1.97252e-05
2.18678e-05
2.42013e-05
2.67276e-05
2.94761e-05
3.22466e-05
3.51164e-05
3.81037e-05
4.12093e-05
4.44343e-05
4.77964e-05
5.13528e-05
5.52373e-05
5.97126e-05
6.52313e-05
7.24859e-05
8.24099e-05
9.60852e-05
0.000114535
0.000138439
0.000167881
0.000202273
0.000240486
0.0002811
0.000322566
0.000363344
0.000399227
5.64516e-06
6.08349e-06
6.48823e-06
6.87892e-06
7.32443e-06
7.88471e-06
8.60144e-06
9.50024e-06
1.05955e-05
1.18944e-05
1.33994e-05
1.51103e-05
1.70273e-05
1.91523e-05
2.1486e-05
2.40302e-05
2.68208e-05
2.96763e-05
3.26334e-05
3.57258e-05
3.89581e-05
4.23293e-05
4.58448e-05
4.95331e-05
5.34731e-05
5.78394e-05
6.29673e-05
6.94295e-05
7.81006e-05
9.0161e-05
0.000106987
0.000129896
0.000159792
0.000196861
0.000240481
0.000289407
0.000342061
0.000396584
0.000449533
0.000494941
4.85959e-06
5.0938e-06
5.37539e-06
5.71099e-06
6.15037e-06
6.73927e-06
7.51045e-06
8.48444e-06
9.67309e-06
1.10829e-05
1.27154e-05
1.45701e-05
1.6647e-05
1.89497e-05
2.14784e-05
2.4271e-05
2.71622e-05
3.0156e-05
3.32975e-05
3.65952e-05
4.00481e-05
4.36563e-05
4.74315e-05
5.14149e-05
5.57108e-05
6.05414e-05
6.63273e-05
7.37836e-05
8.40033e-05
9.8469e-05
0.000118926
0.000147076
0.000184146
0.000230526
0.000285667
0.000348323
0.000416933
0.00048915
0.000556292
0.000615085
4.20027e-06
4.28832e-06
4.48469e-06
4.79006e-06
5.24113e-06
5.87321e-06
6.71214e-06
7.77425e-06
9.06903e-06
1.06025e-05
1.23747e-05
1.4384e-05
1.66293e-05
1.91175e-05
2.18921e-05
2.47709e-05
2.77587e-05
3.09041e-05
3.42156e-05
3.76928e-05
4.13339e-05
4.51424e-05
4.91371e-05
5.33736e-05
5.79843e-05
6.32454e-05
6.96745e-05
7.81513e-05
9.00244e-05
0.000107137
0.000131689
0.000165876
0.000211392
0.000268989
0.000338388
0.000418585
0.000508218
0.000601027
0.000688831
0.000766431
3.63886e-06
3.63182e-06
3.78007e-06
4.08264e-06
4.56746e-06
5.2623e-06
6.18763e-06
7.35609e-06
8.77468e-06
1.04492e-05
1.23776e-05
1.45561e-05
1.69802e-05
1.97283e-05
2.25552e-05
2.55063e-05
2.86222e-05
3.19088e-05
3.53647e-05
3.89875e-05
4.27772e-05
4.67408e-05
5.0905e-05
5.53404e-05
6.02099e-05
6.58478e-05
7.28791e-05
8.23673e-05
9.59513e-05
0.000115893
0.000144933
0.000185896
0.000241118
0.000311962
0.000398754
0.00050118
0.000617479
0.000737114
0.000853623
0.000956863
3.15283e-06
3.09518e-06
3.23123e-06
3.56058e-06
4.10532e-06
4.88761e-06
5.92358e-06
7.22231e-06
8.78759e-06
1.06259e-05
1.27313e-05
1.51153e-05
1.78109e-05
2.05524e-05
2.34477e-05
2.6514e-05
2.97505e-05
3.31537e-05
3.67202e-05
4.04483e-05
4.43396e-05
4.84051e-05
5.26787e-05
5.72466e-05
6.23024e-05
6.82414e-05
7.58021e-05
8.62456e-05
0.000101528
0.000124378
0.000158161
0.000206462
0.000272477
0.000358511
0.00046602
0.000596386
0.00074345
0.00090062
0.00105641
0.00119569
2.72472e-06
2.65494e-06
2.8135e-06
3.20117e-06
3.83593e-06
4.73549e-06
5.912e-06
7.37076e-06
9.11057e-06
1.11403e-05
1.34969e-05
1.60952e-05
1.87716e-05
2.16112e-05
2.46215e-05
2.77968e-05
3.11307e-05
3.46182e-05
3.82561e-05
4.20431e-05
4.59825e-05
5.00887e-05
5.44026e-05
5.90246e-05
6.41782e-05
7.03193e-05
7.8301e-05
8.95872e-05
0.000106465
0.000132157
0.00017071
0.000226586
0.000304056
0.000406741
0.000537695
0.000699377
0.000885903
0.00109147
0.0012999
0.00150135
2.3414e-06
2.29298e-06
2.50776e-06
2.98726e-06
3.74604e-06
4.79767e-06
6.15022e-06
7.80461e-06
9.7511e-06
1.20946e-05
1.45859e-05
1.72082e-05
2.00028e-05
2.29634e-05
2.60799e-05
2.93427e-05
3.27444e-05
3.62794e-05
3.99444e-05
4.37389e-05
4.76672e-05
5.17465e-05
5.60233e-05
6.06104e-05
6.57588e-05
7.19807e-05
8.0239e-05
9.21942e-05
0.000110457
0.000138742
0.000181787
0.000244974
0.000333795
0.000453605
0.000610262
0.000804155
0.0010386
0.00129982
0.001592
0.00189846
1.99351e-06
1.99619e-06
2.30051e-06
2.9075e-06
3.82813e-06
5.07152e-06
6.64098e-06
8.56522e-06
1.08636e-05
1.32527e-05
1.58372e-05
1.86036e-05
2.1532e-05
2.46054e-05
2.78098e-05
3.11341e-05
3.45701e-05
3.81119e-05
4.17561e-05
4.55023e-05
4.93558e-05
5.33353e-05
5.74913e-05
6.19469e-05
6.69755e-05
7.31387e-05
8.14972e-05
9.38893e-05
0.000113221
0.000143652
0.000190549
0.00026014
0.00035905
0.000494124
0.000673049
0.000899755
0.00118356
0.00151522
0.00192794
0.00242253
1.67495e-06
1.75618e-06
2.18378e-06
2.95645e-06
4.08074e-06
5.56043e-06
7.45648e-06
9.66308e-06
1.20339e-05
1.46102e-05
1.73734e-05
2.02957e-05
2.33526e-05
2.65242e-05
2.97944e-05
3.31508e-05
3.65844e-05
4.0089e-05
4.36609e-05
4.72999e-05
5.10115e-05
5.48151e-05
5.87636e-05
6.29864e-05
6.7774e-05
7.37271e-05
8.19865e-05
9.4538e-05
0.00011453
0.000146484
0.00019625
0.000270689
0.000377292
0.00052431
0.000718784
0.000971843
0.00129473
0.00170488
0.00227674
0.00311158
0.00180027
0.00180385
0.00180709
0.00180997
0.00181247
0.00181458
0.00181628
0.00181757
0.00181846
0.001819
0.001819
0.00181846
0.00181757
0.00181628
0.00181458
0.00181247
0.00180997
0.00180709
0.00180385
0.00180027
0.00154023
0.00154342
0.00154629
0.00154884
0.00155104
0.00155289
0.00155438
0.00155551
0.00155629
0.00155675
0.00155676
0.00155629
0.00155551
0.00155438
0.00155289
0.00155104
0.00154884
0.00154629
0.00154342
0.00154023
0.00130947
0.0013121
0.00131446
0.00131654
0.00131832
0.00131981
0.001321
0.00132189
0.0013225
0.00132283
0.00132283
0.0013225
0.00132189
0.001321
0.00131981
0.00131832
0.00131654
0.00131446
0.00131211
0.00130947
0.00110547
0.00110744
0.00110919
0.0011107
0.00111199
0.00111304
0.00111387
0.00111447
0.00111487
0.00111507
0.00111507
0.00111487
0.00111447
0.00111387
0.00111304
0.00111199
0.00111071
0.00110919
0.00110744
0.00110547
0.000926209
0.000927489
0.000928589
0.000929513
0.000930267
0.000930858
0.000931297
0.000931593
0.000931763
0.000931829
0.000931829
0.000931763
0.000931593
0.000931297
0.000930858
0.000930267
0.000929514
0.00092859
0.000927489
0.000926209
0.00076999
0.00077061
0.000771094
0.000771451
0.000771693
0.000771836
0.000771898
0.000771894
0.000771843
0.000771774
0.000771774
0.000771843
0.000771894
0.000771898
0.000771836
0.000771693
0.000771451
0.000771095
0.000770611
0.000769991
0.000635239
0.000635286
0.000635232
0.000635089
0.000634876
0.000634617
0.000634339
0.000634064
0.000633815
0.000633626
0.000633626
0.000633815
0.000634064
0.000634339
0.000634618
0.000634876
0.000635089
0.000635232
0.000635287
0.00063524
0.000520356
0.000519952
0.000519469
0.000518922
0.000518335
0.000517743
0.000517179
0.000516676
0.000516263
0.000515977
0.000515977
0.000516263
0.000516676
0.000517179
0.000517743
0.000518336
0.000518922
0.000519469
0.000519953
0.000520356
0.000423636
0.000422921
0.000422134
0.000421291
0.000420424
0.000419575
0.000418789
0.000418107
0.000417565
0.000417206
0.000417206
0.000417565
0.000418107
0.000418789
0.000419575
0.000420424
0.000421291
0.000422134
0.000422921
0.000423636
0.000343263
0.000342376
0.000341409
0.00034038
0.000339325
0.000338297
0.00033735
0.000336537
0.000335902
0.000335491
0.000335491
0.000335902
0.000336537
0.00033735
0.000338297
0.000339325
0.00034038
0.000341409
0.000342376
0.000343263
0.000277355
0.000276421
0.000275388
0.000274272
0.000273115
0.000271978
0.000270927
0.000270026
0.000269327
0.000268882
0.000268882
0.000269327
0.000270026
0.000270927
0.000271978
0.000273115
0.000274272
0.000275388
0.000276421
0.000277355
0.000224033
0.000223159
0.000222157
0.00022104
0.000219854
0.000218668
0.00021756
0.000216607
0.000215869
0.000215402
0.000215402
0.000215869
0.000216607
0.00021756
0.000218668
0.000219854
0.00022104
0.000222157
0.000223159
0.000224033
0.000181503
0.000180774
0.000179881
0.000178833
0.000177679
0.000176495
0.00017537
0.000174393
0.000173632
0.000173151
0.000173151
0.000173632
0.000174393
0.00017537
0.000176495
0.000177679
0.000178833
0.000179881
0.000180774
0.000181503
0.000148118
0.000147605
0.000146885
0.000145965
0.000144893
0.000143753
0.000142643
0.000141662
0.00014089
0.000140395
0.000140395
0.00014089
0.000141662
0.000142644
0.000143753
0.000144893
0.000145965
0.000146885
0.000147605
0.000148118
0.000122469
0.00012221
0.000121701
0.000120944
0.000119989
0.000118924
0.000117856
0.000116892
0.000116118
0.000115612
0.000115612
0.000116118
0.000116892
0.000117856
0.000118924
0.000119989
0.000120944
0.000121701
0.00012221
0.000122469
0.000103311
0.000103336
0.000103067
0.000102504
0.000101695
0.000100735
9.97342e-05
9.88065e-05
9.80454e-05
9.75332e-05
9.75333e-05
9.80455e-05
9.88067e-05
9.97345e-05
0.000100735
0.000101696
0.000102504
0.000103067
0.000103335
0.000103311
8.96475e-05
8.99814e-05
8.9978e-05
8.96334e-05
8.89981e-05
8.81689e-05
8.72606e-05
8.63911e-05
8.56569e-05
8.51452e-05
8.51453e-05
8.56571e-05
8.63915e-05
8.7261e-05
8.81693e-05
8.89986e-05
8.96338e-05
8.99782e-05
8.99814e-05
8.96473e-05
8.07086e-05
8.13789e-05
8.16652e-05
8.15641e-05
8.11283e-05
8.04585e-05
7.96705e-05
7.88834e-05
7.81932e-05
7.76907e-05
7.76908e-05
7.81935e-05
7.88838e-05
7.9671e-05
8.04591e-05
8.11289e-05
8.15645e-05
8.16654e-05
8.1379e-05
8.07085e-05
7.59377e-05
7.69799e-05
7.75863e-05
7.7758e-05
7.75526e-05
7.70754e-05
7.64403e-05
7.57643e-05
7.51394e-05
7.46571e-05
7.46573e-05
7.51397e-05
7.57649e-05
7.64409e-05
7.70761e-05
7.75533e-05
7.77585e-05
7.75866e-05
7.69801e-05
7.59376e-05
7.49779e-05
7.64432e-05
7.74125e-05
7.78968e-05
7.7962e-05
7.77194e-05
7.72779e-05
7.6749e-05
7.62156e-05
7.57682e-05
7.57684e-05
7.62161e-05
7.67496e-05
7.72786e-05
7.77203e-05
7.79628e-05
7.78975e-05
7.74129e-05
7.64434e-05
7.49778e-05
7.76615e-05
7.96248e-05
8.102e-05
8.18742e-05
8.22655e-05
8.23139e-05
8.21188e-05
8.1783e-05
8.13748e-05
8.0981e-05
8.09812e-05
8.13754e-05
8.17838e-05
8.21197e-05
8.23149e-05
8.22665e-05
8.1875e-05
8.10206e-05
7.96251e-05
7.76615e-05
8.40064e-05
8.65762e-05
8.849e-05
8.97978e-05
9.05941e-05
9.10111e-05
9.11326e-05
9.10485e-05
9.08072e-05
9.04904e-05
9.04907e-05
9.08079e-05
9.10494e-05
9.11337e-05
9.10122e-05
9.05952e-05
8.97988e-05
8.84907e-05
8.65766e-05
8.40065e-05
9.42212e-05
9.75526e-05
0.00010012
0.000102003
0.000103317
0.000104209
0.000104743
0.000104929
0.000104833
0.000104576
0.000104577
0.000104833
0.00010493
0.000104744
0.00010421
0.000103318
0.000102005
0.000100121
9.75532e-05
9.42213e-05
0.000108723
0.000113035
0.00011645
0.000119085
0.000121054
0.000122403
0.000123288
0.000123742
0.000123819
0.000123644
0.000123644
0.00012382
0.000123743
0.00012329
0.000122404
0.000121055
0.000119086
0.000116451
0.000113036
0.000108724
0.000128173
0.000133772
0.00013831
0.000141827
0.000144423
0.000146221
0.00014749
0.000148305
0.000148658
0.000148623
0.000148624
0.000148659
0.000148306
0.000147491
0.000146223
0.000144424
0.000141828
0.000138312
0.000133773
0.000128174
0.00015353
0.000160844
0.000166726
0.0001711
0.000174323
0.000176845
0.000178772
0.000180097
0.000180791
0.000180928
0.000180929
0.000180791
0.000180098
0.000178774
0.000176847
0.000174325
0.000171102
0.000166727
0.000160845
0.00015353
0.000186131
0.000195596
0.000202809
0.000208217
0.000212506
0.000215998
0.000218734
0.000220667
0.000221761
0.000222105
0.000222105
0.000221762
0.000220668
0.000218736
0.000215999
0.000212508
0.00020822
0.000202812
0.000195598
0.000186132
0.000227713
0.000239459
0.00024829
0.000255253
0.000260956
0.000265649
0.000269336
0.000271959
0.000273502
0.000274078
0.000274079
0.000273503
0.00027196
0.000269338
0.000265651
0.000260958
0.000255256
0.000248292
0.000239462
0.000227715
0.00028021
0.000294508
0.000305646
0.00031468
0.00032214
0.000328234
0.000332971
0.000336326
0.000338336
0.000339153
0.000339154
0.000338337
0.000336328
0.000332972
0.000328237
0.000322142
0.000314683
0.000305649
0.000294511
0.000280212
0.000345813
0.000363712
0.000377931
0.000389562
0.000399058
0.000406657
0.000412438
0.000416482
0.000418912
0.000419949
0.000419949
0.000418913
0.000416483
0.00041244
0.000406659
0.000399061
0.000389565
0.000377935
0.000363716
0.000345815
0.000428131
0.000450843
0.000468947
0.000483599
0.000495216
0.000504207
0.000510836
0.000515367
0.000518067
0.000519244
0.000519244
0.000518069
0.000515369
0.000510838
0.000504209
0.000495219
0.000483603
0.000468951
0.000450847
0.000428134
0.000531796
0.000560638
0.000583302
0.000601074
0.000614486
0.000624367
0.000631324
0.000635903
0.000638566
0.000639725
0.000639726
0.000638567
0.000635904
0.000631326
0.00062437
0.000614489
0.000601078
0.000583306
0.000560643
0.0005318
0.000662614
0.000698946
0.000726352
0.000746594
0.000760822
0.000770511
0.000776812
0.000780663
0.000782772
0.000783654
0.000783654
0.000782773
0.000780665
0.000776814
0.000770514
0.000760825
0.000746598
0.000726356
0.000698951
0.000662618
0.000827874
0.000872676
0.000904105
0.000924956
0.000937951
0.000945512
0.00094957
0.000951518
0.000952295
0.000952512
0.000952513
0.000952296
0.000951519
0.000949572
0.000945514
0.000937954
0.000924959
0.000904109
0.000872681
0.000827879
0.00103682
0.00109053
0.00112343
0.00114107
0.00114897
0.00115127
0.00115076
0.0011492
0.00114765
0.00114673
0.00114673
0.00114765
0.0011492
0.00115076
0.00115127
0.00114897
0.00114107
0.00112344
0.00109054
0.00103682
0.00130427
0.00136499
0.00139204
0.00139883
0.00139549
0.00138812
0.00138008
0.00137314
0.00136817
0.00136561
0.00136561
0.00136817
0.00137314
0.00138009
0.00138812
0.00139549
0.00139883
0.00139205
0.00136499
0.00130428
0.00165574
0.00171313
0.00171781
0.00170036
0.00167692
0.00165447
0.00163573
0.00162159
0.00161221
0.00160759
0.00160759
0.00161221
0.00162159
0.00163573
0.00165447
0.00167692
0.00170036
0.00171781
0.00171313
0.00165575
0.00214559
0.00216126
0.00210687
0.0020437
0.00198921
0.0019464
0.00191446
0.00189195
0.00187766
0.00187079
0.00187079
0.00187766
0.00189195
0.00191446
0.0019464
0.00198922
0.0020437
0.00210687
0.00216126
0.0021456
0.00293245
0.00274475
0.00255423
0.00241763
0.00232314
0.00225754
0.00221212
0.00218155
0.00216269
0.00215379
0.00215379
0.00216269
0.00218155
0.00221212
0.00225754
0.00232314
0.00241763
0.00255423
0.00274475
0.00293246
0.00466476
0.00344989
0.00301426
0.00279383
0.00266349
0.00258005
0.00252482
0.00248863
0.00246662
0.00245635
0.00245635
0.00246662
0.00248863
0.00252482
0.00258005
0.00266349
0.00279383
0.00301426
0.00344989
0.00466476
0.00179636
0.00179214
0.00178766
0.00178291
0.00177794
0.00177276
0.00176741
0.00176189
0.00175621
0.00175037
0.00174444
0.00173845
0.00173244
0.00172642
0.00172042
0.00171445
0.00170855
0.00170272
0.00169699
0.00169139
0.00168591
0.00168059
0.00167543
0.00167046
0.00166568
0.00166111
0.00165676
0.00165264
0.00164876
0.00164514
0.00164177
0.00163868
0.00163586
0.00163333
0.00163108
0.00162913
0.00162751
0.00162612
0.00162552
0.00162564
0.00153674
0.00153296
0.00152893
0.00152465
0.00152015
0.00151544
0.00151056
0.0015055
0.0015003
0.00149486
0.00148918
0.00148342
0.00147763
0.00147184
0.00146607
0.00146033
0.00145466
0.00144906
0.00144356
0.00143817
0.00143292
0.00142781
0.00142287
0.00141811
0.00141355
0.00140918
0.00140504
0.00140112
0.00139745
0.00139402
0.00139084
0.00138792
0.00138525
0.00138285
0.00138069
0.00137876
0.00137706
0.0013757
0.00137564
0.00137976
0.00130657
0.00130342
0.00130003
0.00129641
0.00129259
0.00128857
0.00128437
0.00128
0.00127547
0.0012708
0.00126576
0.00126045
0.00125505
0.00124962
0.00124419
0.0012388
0.00123345
0.00122817
0.00122297
0.00121788