/*--------------------------------*- C++ -*----------------------------------*\
  =========                 |
  \\      /  F ield         | OpenFOAM: The Open Source CFD Toolbox
   \\    /   O peration     | Website:  https://openfoam.org
    \\  /    A nd           | Version:  6
     \\/     M anipulation  |
\*---------------------------------------------------------------------------*/
FoamFile
{
    version     2.0;
    format      ascii;
    class       volVectorField;
    location    "10";
    object      U;
}
// * * * * * * * * * * * * * * * * * * * * * * * * * * * * * * * * * * * * * //

dimensions      [0 1 -1 0 0 0 0];

internalField   nonuniform List<vector> 
8800
(
(-4.2961e-05 -0.00134745 0)
(-8.76788e-05 -0.00185404 0)
(-8.75457e-05 -0.00192699 0)
(-8.71256e-05 -0.00193195 0)
(-9.6216e-05 -0.00192845 0)
(-0.000111101 -0.00192605 0)
(-0.000128709 -0.00192539 0)
(-0.000147612 -0.001926 0)
(-0.000167176 -0.00192747 0)
(-0.000187111 -0.00192958 0)
(-0.000207289 -0.0019322 0)
(-0.000227658 -0.00193527 0)
(-0.000248192 -0.00193875 0)
(-0.000268874 -0.0019426 0)
(-0.000289679 -0.0019468 0)
(-0.000310565 -0.00195136 0)
(-0.000331471 -0.00195626 0)
(-0.00035231 -0.00196151 0)
(-0.000372973 -0.00196712 0)
(-0.000393323 -0.0019731 0)
(-0.000413202 -0.00197946 0)
(-0.000432431 -0.00198621 0)
(-0.000450815 -0.00199337 0)
(-0.000468147 -0.00200094 0)
(-0.000484218 -0.00200892 0)
(-0.000498823 -0.00201731 0)
(-0.000511766 -0.00202608 0)
(-0.000522867 -0.00203522 0)
(-0.000531957 -0.00204471 0)
(-0.000538879 -0.00205451 0)
(-0.000543493 -0.00206453 0)
(-0.00054562 -0.00207449 0)
(-0.000545058 -0.00208373 0)
(-0.000541338 -0.00209276 0)
(-0.000534157 -0.00210201 0)
(-0.000523346 -0.00211154 0)
(-0.000508781 -0.00212136 0)
(-0.000490403 -0.00213143 0)
(-0.000468203 -0.00214173 0)
(-0.000442226 -0.00215222 0)
(5.76762e-06 6.99873e-05 0)
(-1.94564e-05 7.20529e-05 0)
(-8.74117e-05 8.81874e-05 0)
(-0.000152963 0.000101217 0)
(-0.000210184 0.000109388 0)
(-0.000264072 0.0001152 0)
(-0.000317081 0.000119747 0)
(-0.000369946 0.000123625 0)
(-0.000422895 0.000127175 0)
(-0.000475991 0.000130581 0)
(-0.000529227 0.000133937 0)
(-0.00058257 0.000137284 0)
(-0.000635961 0.000140628 0)
(-0.000689308 0.000143955 0)
(-0.000742482 0.000147232 0)
(-0.000795307 0.000150419 0)
(-0.000847558 0.000153466 0)
(-0.000898959 0.000156318 0)
(-0.000949188 0.000158921 0)
(-0.000997874 0.000161216 0)
(-0.00104461 0.00016315 0)
(-0.00108896 0.000164676 0)
(-0.00113048 0.000165751 0)
(-0.00116869 0.000166346 0)
(-0.00120316 0.000166441 0)
(-0.00123343 0.00016603 0)
(-0.00125912 0.000165115 0)
(-0.00127983 0.000163701 0)
(-0.00129523 0.000161788 0)
(-0.00130497 0.000159373 0)
(-0.00130869 0.000156452 0)
(-0.00130624 0.000152916 0)
(-0.00129691 0.000148069 0)
(-0.00128007 0.000142025 0)
(-0.00125546 0.000135155 0)
(-0.00122293 0.000127614 0)
(-0.00118243 0.000119514 0)
(-0.00113404 0.000110948 0)
(-0.00107791 0.000102004 0)
(-0.00101427 9.27623e-05 0)
(2.67243e-06 0.000170137 0)
(-3.39649e-05 0.000243144 0)
(-0.00012159 0.000253776 0)
(-0.000214953 0.000254185 0)
(-0.000302726 0.000253445 0)
(-0.00038682 0.000252662 0)
(-0.000468897 0.000251838 0)
(-0.000549782 0.000250927 0)
(-0.000629955 0.000249932 0)
(-0.000709657 0.000248879 0)
(-0.000788955 0.000247779 0)
(-0.000867806 0.000246617 0)
(-0.000946082 0.00024535 0)
(-0.00102359 0.000243915 0)
(-0.00110006 0.000242228 0)
(-0.00117516 0.000240197 0)
(-0.00124852 0.000237726 0)
(-0.00131968 0.000234718 0)
(-0.00138816 0.000231083 0)
(-0.00145342 0.000226742 0)
(-0.00151489 0.000221633 0)
(-0.00157201 0.000215713 0)
(-0.00162418 0.000208963 0)
(-0.00167084 0.00020139 0)
(-0.00171142 0.000193027 0)
(-0.00174543 0.00018393 0)
(-0.00177238 0.000174168 0)
(-0.00179183 0.000163807 0)
(-0.00180339 0.000152887 0)
(-0.00180664 0.000141392 0)
(-0.00180126 0.000129173 0)
(-0.00178659 0.000115874 0)
(-0.001762 0.000101504 0)
(-0.00172758 8.64834e-05 0)
(-0.00168332 7.11903e-05 0)
(-0.00162933 5.58989e-05 0)
(-0.00156581 4.08352e-05 0)
(-0.00149305 2.61933e-05 0)
(-0.00141139 1.21429e-05 0)
(-0.00132123 -1.16485e-06 0)
(-1.4151e-05 0.000115836 0)
(-7.08421e-05 0.000195798 0)
(-0.000165314 0.000214198 0)
(-0.000269877 0.000215245 0)
(-0.000374945 0.000212713 0)
(-0.000479054 0.000210135 0)
(-0.000581825 0.000208133 0)
(-0.000683249 0.000206581 0)
(-0.000783469 0.000205262 0)
(-0.000882565 0.000204002 0)
(-0.000980499 0.000202665 0)
(-0.00107713 0.000201124 0)
(-0.00117222 0.000199244 0)
(-0.00126545 0.000196881 0)
(-0.00135644 0.000193876 0)
(-0.00144474 0.000190071 0)
(-0.00152985 0.000185306 0)
(-0.00161122 0.00017943 0)
(-0.00168827 0.000172308 0)
(-0.0017604 0.000163827 0)
(-0.00182699 0.000153903 0)
(-0.00188743 0.000142482 0)
(-0.00194113 0.000129551 0)
(-0.0019875 0.00011513 0)
(-0.00202602 9.92804e-05 0)
(-0.0020562 8.20939e-05 0)
(-0.00207759 6.36789e-05 0)
(-0.00208982 4.4138e-05 0)
(-0.00209251 2.35469e-05 0)
(-0.00208525 1.95823e-06 0)
(-0.00206754 -2.06383e-05 0)
(-0.00203866 -4.46485e-05 0)
(-0.00199897 -6.97802e-05 0)
(-0.00194876 -9.55423e-05 0)
(-0.00188836 -0.000121517 0)
(-0.00181813 -0.000147361 0)
(-0.00173849 -0.000172785 0)
(-0.00164988 -0.000197538 0)
(-0.00155279 -0.000221408 0)
(-0.0014477 -0.000244204 0)
(-2.08273e-05 0.000151811 0)
(-8.83379e-05 0.000269641 0)
(-0.000190962 0.000308423 0)
(-0.000305069 0.000317858 0)
(-0.000421931 0.000317989 0)
(-0.00053917 0.000315867 0)
(-0.000655565 0.000313602 0)
(-0.000770545 0.000311597 0)
(-0.000883879 0.000309755 0)
(-0.000995404 0.000307868 0)
(-0.00110491 0.000305717 0)
(-0.00121212 0.000303088 0)
(-0.00131668 0.000299765 0)
(-0.00141818 0.000295532 0)
(-0.00151614 0.000290175 0)
(-0.00161006 0.00028348 0)
(-0.00169936 0.00027525 0)
(-0.00178348 0.000265304 0)
(-0.00186182 0.000253488 0)
(-0.00193378 0.000239683 0)
(-0.00199878 0.000223809 0)
(-0.00205625 0.000205829 0)
(-0.00210564 0.000185755 0)
(-0.00214648 0.000163646 0)
(-0.00217829 0.000139607 0)
(-0.00220069 0.000113781 0)
(-0.00221335 8.63197e-05 0)
(-0.00221597 5.73471e-05 0)
(-0.00220822 2.6913e-05 0)
(-0.00218961 -5.03112e-06 0)
(-0.00215963 -3.88878e-05 0)
(-0.00211866 -7.41193e-05 0)
(-0.0020671 -0.000110117 0)
(-0.00200549 -0.000146372 0)
(-0.00193435 -0.000182453 0)
(-0.00185424 -0.000217993 0)
(-0.00176571 -0.000252684 0)
(-0.00166931 -0.000286271 0)
(-0.00156557 -0.000318547 0)
(-0.00145499 -0.000349337 0)
(-2.16078e-05 0.000206595 0)
(-9.29104e-05 0.00036915 0)
(-0.000201578 0.000427094 0)
(-0.000322389 0.000444262 0)
(-0.000446411 0.000446809 0)
(-0.000571148 0.000444621 0)
(-0.000695118 0.000441135 0)
(-0.000817453 0.000437344 0)
(-0.000937655 0.000433373 0)
(-0.00105535 0.000429062 0)
(-0.00117016 0.000424164 0)
(-0.00128169 0.000418412 0)
(-0.00138951 0.000411535 0)
(-0.00149312 0.000403269 0)
(-0.00159202 0.000393355 0)
(-0.00168566 0.000381553 0)
(-0.00177349 0.000367644 0)
(-0.00185496 0.000351439 0)
(-0.00192952 0.000332786 0)
(-0.00199663 0.00031158 0)
(-0.00205579 0.000287763 0)
(-0.00210652 0.000261333 0)
(-0.00214838 0.000232344 0)
(-0.00218101 0.000200904 0)
(-0.00220405 0.000167174 0)
(-0.00221726 0.000131351 0)
(-0.0022204 9.36245e-05 0)
(-0.00221328 5.41102e-05 0)
(-0.00219549 1.2806e-05 0)
(-0.00216663 -3.04276e-05 0)
(-0.00212709 -7.53535e-05 0)
(-0.0020773 -0.00012108 0)
(-0.00201783 -0.000166959 0)
(-0.00194934 -0.000212471 0)
(-0.00187247 -0.000257177 0)
(-0.00178789 -0.000300712 0)
(-0.00169624 -0.000342785 0)
(-0.00159812 -0.000383175 0)
(-0.0014941 -0.000421716 0)
(-0.00138466 -0.000458285 0)
(-2.07057e-05 0.000258068 0)
(-9.16848e-05 0.000465146 0)
(-0.00020175 0.000541917 0)
(-0.000324632 0.000566767 0)
(-0.000451016 0.000571814 0)
(-0.000578207 0.000569576 0)
(-0.000704521 0.000564705 0)
(-0.000828889 0.000558756 0)
(-0.000950628 0.000552095 0)
(-0.0010692 0.000544642 0)
(-0.00118412 0.00053616 0)
(-0.0012949 0.000526365 0)
(-0.00140104 0.000514959 0)
(-0.00150203 0.000501653 0)
(-0.00159735 0.000486175 0)
(-0.00168649 0.000468274 0)
(-0.00176895 0.000447734 0)
(-0.00184422 0.000424377 0)
(-0.00191184 0.000398072 0)
(-0.00197138 0.00036874 0)
(-0.00202243 0.000336363 0)
(-0.00206464 0.000300981 0)
(-0.00209771 0.000262696 0)
(-0.00212138 0.00022167 0)
(-0.00213544 0.000178119 0)
(-0.00213977 0.000132281 0)
(-0.00213427 8.43548e-05 0)
(-0.00211874 3.44331e-05 0)
(-0.00209252 -1.74444e-05 0)
(-0.00205631 -7.13302e-05 0)
(-0.00201027 -0.000126292 0)
(-0.001955 -0.000181434 0)
(-0.00189118 -0.000236073 0)
(-0.00181952 -0.000289653 0)
(-0.00174077 -0.000341722 0)
(-0.00165568 -0.000391928 0)
(-0.00156497 -0.000440016 0)
(-0.0014693 -0.000485823 0)
(-0.00136924 -0.000529263 0)
(-0.00126528 -0.000570297 0)
(-1.88649e-05 0.000306493 0)
(-8.63333e-05 0.000558396 0)
(-0.000193325 0.000655085 0)
(-0.000313842 0.000688296 0)
(-0.000438279 0.000696162 0)
(-0.000563606 0.000693958 0)
(-0.000687915 0.000687601 0)
(-0.000809969 0.000679225 0)
(-0.000928949 0.000669453 0)
(-0.00104421 0.000658317 0)
(-0.00115519 0.000645622 0)
(-0.00126136 0.000631096 0)
(-0.00136218 0.000614446 0)
(-0.00145716 0.000595386 0)
(-0.00154583 0.000573651 0)
(-0.0016277 0.000549007 0)
(-0.00170235 0.000521258 0)
(-0.00176937 0.000490255 0)
(-0.00182839 0.000455903 0)
(-0.0018791 0.000418164 0)
(-0.00192122 0.000377063 0)
(-0.00195451 0.000332692 0)
(-0.0019788 0.000285202 0)
(-0.00199395 0.000234808 0)
(-0.00199988 0.000181768 0)
(-0.00199657 0.000126343 0)
(-0.00198399 6.87106e-05 0)
(-0.00196175 8.91893e-06 0)
(-0.00192967 -5.29503e-05 0)
(-0.00188855 -0.000116397 0)
(-0.00183857 -0.000180326 0)
(-0.00178042 -0.0002438 0)
(-0.00171482 -0.000306066 0)
(-0.00164256 -0.000366512 0)
(-0.00156446 -0.000424657 0)
(-0.00148138 -0.000480164 0)
(-0.00139414 -0.000532829 0)
(-0.00130348 -0.000582577 0)
(-0.00121001 -0.000629432 0)
(-0.00111422 -0.000673488 0)
(-1.62233e-05 0.000350912 0)
(-7.75837e-05 0.000647003 0)
(-0.000177834 0.00076448 0)
(-0.000292272 0.000806703 0)
(-0.000411166 0.000817647 0)
(-0.000531103 0.000815452 0)
(-0.000649929 0.000807394 0)
(-0.000766262 0.000796237 0)
(-0.000879182 0.000782899 0)
(-0.000987977 0.000767552 0)
(-0.00109204 0.000750071 0)
(-0.00119082 0.000730224 0)
(-0.00128381 0.000707747 0)
(-0.00137055 0.000682382 0)
(-0.00145059 0.000653894 0)
(-0.00152355 0.000622081 0)
(-0.00158908 0.000586786 0)
(-0.00164687 0.000547903 0)
(-0.00169667 0.00050538 0)
(-0.00173826 0.000459227 0)
(-0.00177148 0.00040952 0)
(-0.00179621 0.000356396 0)
(-0.0018124 0.000300056 0)
(-0.00181999 0.000240756 0)
(-0.001819 0.000178777 0)
(-0.00180949 0.00011436 0)
(-0.00179137 4.76519e-05 0)
(-0.00176385 -2.12647e-05 0)
(-0.00172813 -9.22969e-05 0)
(-0.00168392 -0.000164331 0)
(-0.0016318 -0.000236242 0)
(-0.00157247 -0.000307021 0)
(-0.00150669 -0.000375823 0)
(-0.00143531 -0.000441954 0)
(-0.0013593 -0.000504883 0)
(-0.00127963 -0.000564281 0)
(-0.00119726 -0.000620008 0)
(-0.00111303 -0.000672104 0)
(-0.00102764 -0.000720743 0)
(-0.00094159 -0.000766197 0)
(-1.30535e-05 0.000389525 0)
(-6.63754e-05 0.000727666 0)
(-0.000156973 0.000866316 0)
(-0.000262313 0.000918149 0)
(-0.000372754 0.000932491 0)
(-0.000484502 0.000930354 0)
(-0.000595158 0.000920456 0)
(-0.000703201 0.000906263 0)
(-0.000807627 0.000889035 0)
(-0.000907684 0.000869115 0)
(-0.00100275 0.000846476 0)
(-0.00109229 0.000820949 0)
(-0.00117582 0.00079232 0)
(-0.00125293 0.000760377 0)
(-0.00132325 0.000724933 0)
(-0.00138647 0.000685833 0)
(-0.00144232 0.000642971 0)
(-0.00149059 0.000596287 0)
(-0.00153113 0.000545783 0)
(-0.00156383 0.000491516 0)
(-0.00158862 0.000433608 0)
(-0.00160548 0.00037224 0)
(-0.00161442 0.000307652 0)
(-0.00161548 0.000240122 0)
(-0.00160873 0.000169925 0)
(-0.00159427 9.72311e-05 0)
(-0.0015719 2.20863e-05 0)
(-0.00154066 -5.52497e-05 0)
(-0.00150219 -0.000134416 0)
(-0.00145602 -0.000214136 0)
(-0.00140281 -0.000293145 0)
(-0.00134324 -0.000370309 0)
(-0.00127812 -0.000444657 0)
(-0.00120841 -0.000515378 0)
(-0.00113518 -0.000581858 0)
(-0.00105959 -0.000643765 0)
(-0.000982742 -0.000701033 0)
(-0.000905635 -0.000753845 0)
(-0.00082907 -0.000802564 0)
(-0.000753613 -0.000847696 0)
(-9.63427e-06 0.000421149 0)
(-5.36343e-05 0.000797964 0)
(-0.000132376 0.000957752 0)
(-0.000226251 0.00101978 0)
(-0.000325958 0.00103796 0)
(-0.000427371 0.00103607 0)
(-0.000527855 0.00102434 0)
(-0.000625749 0.00100702 0)
(-0.000719977 0.00098575 0)
(-0.000809758 0.00096109 0)
(-0.000894473 0.000933136 0)
(-0.000973611 0.000901801 0)
(-0.00104674 0.000866939 0)
(-0.00111349 0.000828402 0)
(-0.00117357 0.000786057 0)
(-0.00122675 0.00073981 0)
(-0.00127283 0.000689608 0)
(-0.0013117 0.000635448 0)
(-0.00134327 0.000577377 0)
(-0.00136754 0.000515501 0)
(-0.00138449 0.000449978 0)
(-0.00139418 0.000381023 0)
(-0.00139665 0.000308895 0)
(-0.00139195 0.000233881 0)
(-0.00138022 0.000156233 0)
(-0.00136149 7.60628e-05 0)
(-0.00133497 -6.66986e-06 0)
(-0.00130161 -9.17915e-05 0)
(-0.00126109 -0.00017833 0)
(-0.00121362 -0.000264963 0)
(-0.00115985 -0.000350288 0)
(-0.0011005 -0.00043301 0)
(-0.00103642 -0.000512 0)
(-0.000968683 -0.000586288 0)
(-0.000898511 -0.000655133 0)
(-0.00082724 -0.000718182 0)
(-0.000756172 -0.000775455 0)
(-0.000686458 -0.000827309 0)
(-0.00061904 -0.000874335 0)
(-0.000554571 -0.000917323 0)
(-6.18957e-06 0.000445214 0)
(-4.01608e-05 0.000856346 0)
(-0.000105516 0.00103682 0)
(-0.00018617 0.00110956 0)
(-0.000273434 0.00113212 0)
(-0.000362931 0.00113083 0)
(-0.000451813 0.00111744 0)
(-0.000538285 0.00109704 0)
(-0.000621195 0.00107174 0)
(-0.000699737 0.00104235 0)
(-0.000773302 0.0010091 0)
(-0.000841408 0.000972019 0)
(-0.000903669 0.000931039 0)
(-0.000959778 0.000886082 0)
(-0.0010095 0.000837083 0)
(-0.00105266 0.000784009 0)
(-0.00108915 0.000726866 0)
(-0.00111891 0.000665702 0)
(-0.00114195 0.000600613 0)
(-0.00115827 0.000531738 0)
(-0.00116795 0.000459267 0)
(-0.00117106 0.000383427 0)
(-0.00116766 0.000304483 0)
(-0.00115782 0.000222704 0)
(-0.00114167 0.000138279 0)
(-0.00111918 5.12499e-05 0)
(-0.00108918 -3.83413e-05 0)
(-0.0010535 -0.00013038 0)
(-0.00101113 -0.000223604 0)
(-0.000962563 -0.000316469 0)
(-0.000908406 -0.000407389 0)
(-0.000849403 -0.000494893 0)
(-0.000786489 -0.000577661 0)
(-0.000720809 -0.000654535 0)
(-0.00065376 -0.000724581 0)
(-0.000586869 -0.000787412 0)
(-0.000521634 -0.00084314 0)
(-0.000459372 -0.000892331 0)
(-0.000401185 -0.000935835 0)
(-0.000347834 -0.000974785 0)
(-2.90074e-06 0.000461597 0)
(-2.66398e-05 0.000901906 0)
(-7.76884e-05 0.00110215 0)
(-0.00014392 0.00118602 0)
(-0.000217531 0.00121357 0)
(-0.000294007 0.00121335 0)
(-0.000370326 0.00119862 0)
(-0.000444562 0.00117536 0)
(-0.000515487 0.0011462 0)
(-0.000582265 0.00111222 0)
(-0.000644293 0.00107386 0)
(-0.000701116 0.00103124 0)
(-0.000752389 0.000984405 0)
(-0.000797856 0.000933347 0)
(-0.000837331 0.000878073 0)
(-0.0008707 0.000818613 0)
(-0.000897906 0.00075503 0)
(-0.000918941 0.000687421 0)
(-0.000933842 0.000615921 0)
(-0.000942674 0.000540699 0)
(-0.000945519 0.000461958 0)
(-0.000942456 0.000379927 0)
(-0.000933542 0.00029486 0)
(-0.000918852 0.000206994 0)
(-0.000898514 0.00011644 0)
(-0.0008723 2.30799e-05 0)
(-0.000839063 -7.28743e-05 0)
(-0.000800835 -0.000171058 0)
(-0.000756615 -0.000270237 0)
(-0.000706898 -0.00036864 0)
(-0.000652302 -0.000464434 0)
(-0.000593619 -0.00055593 0)
(-0.000531853 -0.000641601 0)
(-0.00046822 -0.000720077 0)
(-0.000404303 -0.000790169 0)
(-0.000341806 -0.000851443 0)
(-0.000282409 -0.0009041 0)
(-0.000227569 -0.000948929 0)
(-0.000178596 -0.000987062 0)
(-0.000136346 -0.00102004 0)
(8.12376e-08 0.000470532 0)
(-1.36571e-05 0.000934299 0)
(-5.00132e-05 0.00115292 0)
(-0.000101103 0.00124815 0)
(-0.000160275 0.00128133 0)
(-0.000223014 0.00128278 0)
(-0.000286179 0.00126717 0)
(-0.000347725 0.00124141 0)
(-0.000406339 0.00120867 0)
(-0.000461148 0.0011704 0)
(-0.000511545 0.00112721 0)
(-0.000557094 0.0010794 0)
(-0.000597484 0.00102707 0)
(-0.000632494 0.00097033 0)
(-0.000661983 0.000909244 0)
(-0.000685872 0.000843907 0)
(-0.000704142 0.000774436 0)
(-0.000716818 0.000700971 0)
(-0.000723958 0.000623678 0)
(-0.000725645 0.000542744 0)
(-0.000721964 0.000458373 0)
(-0.000712979 0.000370778 0)
(-0.000698711 0.000280171 0)
(-0.000679194 0.000186739 0)
(-0.000654472 9.05853e-05 0)
(-0.000623482 -8.45949e-06 0)
(-0.000587809 -0.000110172 0)
(-0.000546916 -0.00021385 0)
(-0.000500708 -0.000318301 0)
(-0.00044968 -0.000421543 0)
(-0.000394485 -0.000521474 0)
(-0.000335996 -0.000616165 0)
(-0.000275296 -0.000703854 0)
(-0.00021366 -0.000782942 0)
(-0.000152941 -0.000851901 0)
(-9.48976e-05 -0.000910305 0)
(-4.13552e-05 -0.000958431 0)
(6.16094e-06 -0.000997299 0)
(4.59691e-05 -0.00102823 0)
(7.71855e-05 -0.0010533 0)
(2.66009e-06 0.000472556 0)
(-1.67841e-06 0.000953634 0)
(-2.34449e-05 0.0011888 0)
(-5.90885e-05 0.00129541 0)
(-0.000103386 0.00133481 0)
(-0.000151985 0.0013386 0)
(-0.000201691 0.0013227 0)
(-0.000250357 0.00129491 0)
(-0.000296584 0.00125902 0)
(-0.000339446 0.00121684 0)
(-0.000378321 0.00116923 0)
(-0.000412781 0.00111661 0)
(-0.000442532 0.00105925 0)
(-0.000467381 0.000997291 0)
(-0.00048721 0.000930899 0)
(-0.000501968 0.000860222 0)
(-0.000511654 0.000785423 0)
(-0.000516308 0.000706682 0)
(-0.000515995 0.000624186 0)
(-0.000510799 0.000538134 0)
(-0.000500798 0.000448718 0)
(-0.000486044 0.00035612 0)
(-0.000466532 0.000260484 0)
(-0.000442237 0.000161884 0)
(-0.000413091 6.04515e-05 0)
(-0.000377556 -4.37134e-05 0)
(-0.00033849 -0.000150404 0)
(-0.00029455 -0.000258908 0)
(-0.000246021 -0.000367963 0)
(-0.000193441 -0.000475324 0)
(-0.000137496 -0.00057864 0)
(-7.90731e-05 -0.000675772 0)
(-1.92973e-05 -0.000764733 0)
(4.05004e-05 -0.000843628 0)
(9.78252e-05 -0.000910081 0)
(0.000151253 -0.000964117 0)
(0.000198837 -0.00100611 0)
(0.000238789 -0.00103717 0)
(0.000269599 -0.00105919 0)
(0.000290236 -0.00107467 0)
(4.87063e-06 0.00046856 0)
(9.05474e-06 0.00096038 0)
(1.25047e-06 0.00120975 0)
(-1.90568e-05 0.00132758 0)
(-4.83259e-05 0.00137374 0)
(-8.26218e-05 0.00138059 0)
(-0.000118774 0.00136505 0)
(-0.000154561 0.00133582 0)
(-0.000188495 0.00129729 0)
(-0.000219586 0.00125167 0)
(-0.000247181 0.00120009 0)
(-0.000270842 0.00114315 0)
(-0.000290282 0.00108122 0)
(-0.000305318 0.00101456 0)
(-0.000315845 0.000943383 0)
(-0.000321822 0.000867903 0)
(-0.000323253 0.000788324 0)
(-0.000320178 0.000704857 0)
(-0.000312658 0.000617709 0)
(-0.00030076 0.000527077 0)
(-0.000284543 0.000433143 0)
(-0.000264037 0.000336058 0)
(-0.000239248 0.000235897 0)
(-0.000210085 0.000132552 0)
(-0.000176206 2.61277e-05 0)
(-0.000136265 -8.28885e-05 0)
(-9.32632e-05 -0.000193971 0)
(-4.59621e-05 -0.000306718 0)
(5.29491e-06 -0.000420113 0)
(5.95905e-05 -0.000531049 0)
(0.000116237 -0.000636837 0)
(0.000174501 -0.000735333 0)
(0.000233085 -0.00082409 0)
(0.000290376 -0.000900783 0)
(0.000344534 -0.000963738 0)
(0.00039373 -0.00101239 0)
(0.000435856 -0.00104708 0)
(0.000468935 -0.00106909 0)
(0.000491315 -0.00108068 0)
(0.000501791 -0.00108479 0)
(6.7563e-06 0.000459071 0)
(1.85128e-05 0.000955955 0)
(2.35957e-05 0.00121642 0)
(1.80684e-05 0.00134459 0)
(3.66294e-06 0.00139804 0)
(-1.63742e-05 0.00140872 0)
(-3.90171e-05 0.00139428 0)
(-6.20458e-05 0.00136426 0)
(-8.38843e-05 0.00132367 0)
(-0.00010347 0.00127515 0)
(-0.000120099 0.00122011 0)
(-0.000133305 0.00115935 0)
(-0.000142795 0.00109337 0)
(-0.000148382 0.00102251 0)
(-0.000149958 0.000947076 0)
(-0.000147479 0.000867319 0)
(-0.000140948 0.000783487 0)
(-0.000130391 0.000695812 0)
(-0.000115852 0.000604511 0)
(-9.73735e-05 0.000509777 0)
(-7.49696e-05 0.000411762 0)
(-4.86095e-05 0.000310554 0)
(-1.8287e-05 0.00020607 0)
(1.6203e-05 9.76579e-05 0)
(5.6128e-05 -1.35641e-05 0)
(9.91592e-05 -0.000126925 0)
(0.000145912 -0.000241948 0)
(0.000196318 -0.000358174 0)
(0.000249662 -0.000474009 0)
(0.000305296 -0.000586979 0)
(0.000362702 -0.000694417 0)
(0.000421032 -0.00079355 0)
(0.000478936 -0.000881516 0)
(0.000534714 -0.000955681 0)
(0.000586435 -0.00101416 0)
(0.00063199 -0.00105619 0)
(0.000669126 -0.00108213 0)
(0.000695716 -0.0010935 0)
(0.000709962 -0.00109294 0)
(0.000710532 -0.00108389 0)
(8.28637e-06 0.000444857 0)
(2.66804e-05 0.000941192 0)
(4.34702e-05 0.00120991 0)
(5.17101e-05 0.00134727 0)
(5.1565e-05 0.00140786 0)
(4.55462e-05 0.00142297 0)
(3.62403e-05 0.00141048 0)
(2.5785e-05 0.00138046 0)
(1.58031e-05 0.0013385 0)
(7.43223e-06 0.00128767 0)
(1.4403e-06 0.00122971 0)
(-1.66439e-06 0.00116562 0)
(-1.55533e-06 0.00109607 0)
(1.97239e-06 0.00102147 0)
(9.03577e-06 0.000942203 0)
(1.96899e-05 0.000858586 0)
(3.39477e-05 0.000770895 0)
(5.17961e-05 0.00067938 0)
(7.32102e-05 0.000584265 0)
(9.81705e-05 0.000485726 0)
(0.000126689 0.000383882 0)
(0.00015881 0.000278767 0)
(0.000194493 0.00017026 0)
(0.000233766 5.81483e-05 0)
(0.00027832 -5.69875e-05 0)
(0.000325034 -0.000173888 0)
(0.000375267 -0.000292246 0)
(0.000428553 -0.00041139 0)
(0.000484254 -0.000529622 0)
(0.000541816 -0.000644447 0)
(0.000600624 -0.000752955 0)
(0.000659713 -0.000851986 0)
(0.000717661 -0.000938296 0)
(0.000772649 -0.00100893 0)
(0.000822537 -0.00106177 0)
(0.000864965 -0.00109584 0)
(0.0008975 -0.00111154 0)
(0.00091787 -0.00111065 0)
(0.000924164 -0.00109621 0)
(0.000914978 -0.00107217 0)
(9.46092e-06 0.000426723 0)
(3.35259e-05 0.000917249 0)
(6.07949e-05 0.00119126 0)
(8.16941e-05 0.00133645 0)
(9.49503e-05 0.0014039 0)
(0.00010233 0.00142376 0)
(0.000105958 0.0014138 0)
(0.000107782 0.00138446 0)
(0.000109392 0.00134178 0)
(0.000111962 0.00128927 0)
(0.000116312 0.00122896 0)
(0.000122995 0.00116209 0)
(0.000132378 0.00108947 0)
(0.000144691 0.00101164 0)
(0.000160066 0.000929052 0)
(0.000178575 0.000842072 0)
(0.000200247 0.000751012 0)
(0.000225084 0.00065614 0)
(0.000253076 0.000557683 0)
(0.000284216 0.000455806 0)
(0.000318528 0.000350602 0)
(0.000356028 0.000242057 0)
(0.000396649 0.000129977 0)
(0.000440984 1.40746e-05 0)
(0.000489346 -0.000104622 0)
(0.000539871 -0.000224641 0)
(0.000593491 -0.000345857 0)
(0.000649753 -0.000467463 0)
(0.000708137 -0.000587659 0)
(0.000768108 -0.000703852 0)
(0.000828929 -0.000812869 0)
(0.000889487 -0.000911143 0)
(0.000948205 -0.000995001 0)
(0.00100306 -0.00106112 0)
(0.00105167 -0.00110707 0)
(0.00109141 -0.00113175 0)
(0.00111965 -0.00113562 0)
(0.00113398 -0.00112075 0)
(0.00113241 -0.00109062 0)
(0.00111352 -0.00104979 0)
(1.03052e-05 0.000405439 0)
(3.90668e-05 0.000885342 0)
(7.55252e-05 0.00116167 0)
(0.000107888 0.00131316 0)
(0.000133561 0.00138698 0)
(0.00015357 0.00141171 0)
(0.000169556 0.00140478 0)
(0.000183213 0.00137675 0)
(0.000196033 0.00133402 0)
(0.000209185 0.00128045 0)
(0.00022352 0.00121837 0)
(0.000239631 0.00114925 0)
(0.000257922 0.00107406 0)
(0.000278651 0.000993472 0)
(0.000301974 0.000908017 0)
(0.000327981 0.00081811 0)
(0.000356717 0.000724099 0)
(0.000388198 0.000626275 0)
(0.000422426 0.000524865 0)
(0.000459413 0.000420027 0)
(0.000499191 0.000311825 0)
(0.000541771 0.000200173 0)
(0.000587167 8.47805e-05 0)
(0.000636973 -3.45234e-05 0)
(0.00068843 -0.00015602 0)
(0.000742608 -0.000278821 0)
(0.000799588 -0.000402626 0)
(0.000858993 -0.00052646 0)
(0.000920394 -0.000648398 0)
(0.000983228 -0.000765667 0)
(0.00104663 -0.000874769 0)
(0.00110932 -0.000971697 0)
(0.00116947 -0.0010523 0)
(0.00122481 -0.00111284 0)
(0.00127262 -0.00115057 0)
(0.00131003 -0.00116429 0)
(0.00133417 -0.00115459 0)
(0.00134252 -0.00112389 0)
(0.00133304 -0.00107623 0)
(0.00130438 -0.0010168 0)
(1.08513e-05 0.000381731 0)
(4.33541e-05 0.0008467 0)
(8.76679e-05 0.00112243 0)
(0.000130214 0.00127855 0)
(0.00016721 0.00135802 0)
(0.000198955 0.00138757 0)
(0.000226588 0.00138398 0)
(0.000251503 0.00135779 0)
(0.00027505 0.00131562 0)
(0.000298349 0.00126158 0)
(0.000322258 0.0011983 0)
(0.000347398 0.00112747 0)
(0.000374201 0.00105022 0)
(0.000402954 0.000967351 0)
(0.000433838 0.00087948 0)
(0.000466963 0.00078708 0)
(0.000502389 0.000690539 0)
(0.000540147 0.000590167 0)
(0.000580256 0.000486197 0)
(0.000622741 0.000378778 0)
(0.000667641 0.000267939 0)
(0.000714964 0.000153501 0)
(0.000764998 3.50384e-05 0)
(0.000818968 -8.71216e-05 0)
(0.000874294 -0.000211066 0)
(0.000932183 -0.000336403 0)
(0.000992638 -0.000462651 0)
(0.00105543 -0.00058863 0)
(0.00112019 -0.000712234 0)
(0.00118634 -0.00083042 0)
(0.00125288 -0.000939285 0)
(0.00131828 -0.00103431 0)
(0.00138047 -0.00111083 0)
(0.0014368 -0.00116462 0)
(0.0014842 -0.00119266 0)
(0.00151949 -0.00119369 0)
(0.00153957 -0.00116851 0)
(0.00154181 -0.00112002 0)
(0.0015242 -0.00105291 0)
(0.00148553 -0.000973101 0)
(1.11327e-05 0.000356279 0)
(4.64587e-05 0.000802545 0)
(9.72761e-05 0.00107484 0)
(0.000148659 0.00123384 0)
(0.000195787 0.00131806 0)
(0.000238261 0.00135217 0)
(0.000276713 0.00135209 0)
(0.000312207 0.00132815 0)
(0.000345907 0.00128703 0)
(0.000378853 0.00123309 0)
(0.000411878 0.00116916 0)
(0.000445613 0.00109714 0)
(0.000480509 0.00101833 0)
(0.000516879 0.000933656 0)
(0.000554926 0.00084382 0)
(0.000594777 0.000749362 0)
(0.00063651 0.000650708 0)
(0.000680173 0.000548189 0)
(0.000725805 0.000442043 0)
(0.000773464 0.000332394 0)
(0.000823212 0.000219202 0)
(0.000875139 0.000102159 0)
(0.000930559 -1.9238e-05 0)
(0.000987543 -0.000143562 0)
(0.00104654 -0.000269749 0)
(0.00110802 -0.000397491 0)
(0.00117202 -0.000526137 0)
(0.00123841 -0.000654287 0)
(0.00130689 -0.000779582 0)
(0.00137678 -0.000898614 0)
(0.00144695 -0.00100698 0)
(0.0015156 -0.00109957 0)
(0.00158031 -0.00117109 0)
(0.00163799 -0.00121686 0)
(0.0016852 -0.00123357 0)
(0.00171837 -0.00121998 0)
(0.00173419 -0.00117725 0)
(0.00172994 -0.00110887 0)
(0.00170372 -0.00102033 0)
(0.00165455 -0.000918405 0)
(1.11835e-05 0.000329705 0)
(4.84673e-05 0.000754079 0)
(0.000104444 0.00102027 0)
(0.000163274 0.00118032 0)
(0.000219264 0.00126826 0)
(0.000271361 0.00130649 0)
(0.000319698 0.00130992 0)
(0.000364991 0.00128849 0)
(0.000408189 0.00124885 0)
(0.000450214 0.00119549 0)
(0.00049185 0.00113141 0)
(0.000533715 0.0010587 0)
(0.000576269 0.00097881 0)
(0.000619836 0.00089279 0)
(0.00066464 0.000801431 0)
(0.000710823 0.000705339 0)
(0.000758479 0.00060498 0)
(0.000807673 0.000500704 0)
(0.000858469 0.000392744 0)
(0.000910949 0.000281187 0)
(0.000965199 0.000165894 0)
(0.00102154 4.64206e-05 0)
(0.00108111 -7.73362e-05 0)
(0.00114171 -0.000203595 0)
(0.00120442 -0.000331977 0)
(0.00126955 -0.000462145 0)
(0.00133725 -0.000593274 0)
(0.00140751 -0.00072373 0)
(0.00148002 -0.000850832 0)
(0.00155406 -0.000970706 0)
(0.00162828 -0.00107834 0)
(0.00170059 -0.00116791 0)
(0.00176812 -0.00123346 0)
(0.00182734 -0.00126977 0)
(0.00187431 -0.0012733 0)
(0.00190507 -0.00124295 0)
(0.0019161 -0.00118038 0)
(0.00190465 -0.00108988 0)
(0.00186899 -0.000977891 0)
(0.00180851 -0.000852162 0)
(1.10387e-05 0.000302573 0)
(4.94795e-05 0.000702463 0)
(0.000109305 0.000960077 0)
(0.000174171 0.00111934 0)
(0.000237692 0.00120983 0)
(0.000298223 0.0012516 0)
(0.000355417 0.00125836 0)
(0.000409637 0.00123956 0)
(0.000461593 0.00120171 0)
(0.000512063 0.00114933 0)
(0.000561755 0.00108555 0)
(0.000611252 0.00101261 0)
(0.000661003 0.000932092 0)
(0.000711339 0.000845166 0)
(0.00076249 0.000752711 0)
(0.000814612 0.000655395 0)
(0.000867814 0.000553726 0)
(0.000922181 0.000448064 0)
(0.000977812 0.000338623 0)
(0.00103483 0.000225421 0)
(0.0010934 0.000108177 0)
(0.00115462 -1.3706e-05 0)
(0.00121728 -0.000139148 0)
(0.00128144 -0.00026723 0)
(0.00134776 -0.000397811 0)
(0.00141657 -0.000530494 0)
(0.00148813 -0.000664276 0)
(0.00156249 -0.000797252 0)
(0.00163934 -0.000926336 0)
(0.00171783 -0.00104707 0)
(0.0017964 -0.00115372 0)
(0.00187259 -0.00123963 0)
(0.00194304 -0.00129807 0)
(0.00200367 -0.00132328 0)
(0.00205002 -0.00131154 0)
(0.00207771 -0.00126203 0)
(0.00208301 -0.0011771 0)
(0.00206319 -0.00106208 0)
(0.00201683 -0.000924573 0)
(0.00194377 -0.000773452 0)
(1.07319e-05 0.00027538 0)
(4.96034e-05 0.000648793 0)
(0.00011202 0.000895615 0)
(0.000181516 0.00105228 0)
(0.000251197 0.00114407 0)
(0.000318903 0.00118864 0)
(0.000383843 0.00119842 0)
(0.00044603 0.00118222 0)
(0.000505924 0.00114634 0)
(0.000564137 0.00109523 0)
(0.000621277 0.00103213 0)
(0.000677868 0.000959359 0)
(0.000734335 0.000878625 0)
(0.000790998 0.000791204 0)
(0.000848085 0.000698056 0)
(0.000905761 0.00059991 0)
(0.000964146 0.000497305 0)
(0.00102335 0.000390605 0)
(0.0010835 0.000279986 0)
(0.00114476 0.000165368 0)
(0.00120754 4.63291e-05 0)
(0.0012728 -7.74732e-05 0)
(0.00133883 -0.000204411 0)
(0.00140656 -0.000334368 0)
(0.00147652 -0.000467277 0)
(0.00154913 -0.000602666 0)
(0.00162472 -0.000739349 0)
(0.00170339 -0.000875109 0)
(0.00178478 -0.00100636 0)
(0.00186791 -0.00112797 0)
(0.00195092 -0.0012333 0)
(0.00203094 -0.00131477 0)
(0.00210407 -0.00136477 0)
(0.00216562 -0.00137697 0)
(0.00221053 -0.00134756 0)
(0.002234 -0.00127618 0)
(0.0022321 -0.00116612 0)
(0.00220222 -0.00102402 0)
(0.00214331 -0.000858873 0)
(0.00205585 -0.000680848 0)
(1.02954e-05 0.000248554 0)
(4.89518e-05 0.000594087 0)
(0.000112775 0.000828192 0)
(0.000185522 0.000980526 0)
(0.000259972 0.00107231 0)
(0.000333544 0.00111883 0)
(0.000405047 0.00113115 0)
(0.000474163 0.0011174 0)
(0.000541097 0.00108352 0)
(0.000606282 0.00103389 0)
(0.000670204 0.000971742 0)
(0.000733314 0.00089947 0)
(0.000795989 0.000818879 0)
(0.000858526 0.000731331 0)
(0.000921144 0.000637861 0)
(0.000984006 0.000539246 0)
(0.00104725 0.000436047 0)
(0.00111101 0.000328612 0)
(0.00117546 0.000217041 0)
(0.0012409 0.000101106 0)
(0.00130832 -1.98551e-05 0)
(0.00137665 -0.000144778 0)
(0.00144614 -0.000273149 0)
(0.00151745 -0.000405074 0)
(0.00159113 -0.000540486 0)
(0.00166766 -0.000678815 0)
(0.00174743 -0.000818672 0)
(0.00183052 -0.000957467 0)
(0.0019165 -0.00109104 0)
(0.00200419 -0.00121342 0)
(0.00209143 -0.00131697 0)
(0.00217487 -0.00139302 0)
(0.00225002 -0.00143299 0)
(0.0023115 -0.00142996 0)
(0.00235363 -0.00138014 0)
(0.00237115 -0.00128382 0)
(0.00235996 -0.00114558 0)
(0.00231764 -0.00097363 0)
(0.00224365 -0.000778645 0)
(0.00213919 -0.000572246 0)
(9.75863e-06 0.000222459 0)
(4.76375e-05 0.000539273 0)
(0.000111773 0.000759059 0)