/*--------------------------------*- C++ -*----------------------------------*\
  =========                 |
  \\      /  F ield         | OpenFOAM: The Open Source CFD Toolbox
   \\    /   O peration     | Website:  https://openfoam.org
    \\  /    A nd           | Version:  6
     \\/     M anipulation  |
\*---------------------------------------------------------------------------*/
FoamFile
{
    version     2.0;
    format      ascii;
    class       volVectorField;
    location    "40";
    object      U;
}
// * * * * * * * * * * * * * * * * * * * * * * * * * * * * * * * * * * * * * //

dimensions      [0 1 -1 0 0 0 0];

internalField   nonuniform List<vector> 
8800
(
(-4.2945e-05 -0.00134732 0)
(-8.76683e-05 -0.00185385 0)
(-8.75865e-05 -0.0019268 0)
(-8.72263e-05 -0.00193172 0)
(-9.63734e-05 -0.0019282 0)
(-0.000111313 -0.0019258 0)
(-0.000128973 -0.00192514 0)
(-0.000147923 -0.00192574 0)
(-0.000167526 -0.00192721 0)
(-0.000187491 -0.00192933 0)
(-0.000207685 -0.00193197 0)
(-0.000228051 -0.00193507 0)
(-0.000248562 -0.00193857 0)
(-0.000269196 -0.00194246 0)
(-0.000289926 -0.00194672 0)
(-0.000310708 -0.00195133 0)
(-0.000331479 -0.00195629 0)
(-0.000352154 -0.00196161 0)
(-0.000372624 -0.00196729 0)
(-0.000392755 -0.00197334 0)
(-0.000412391 -0.00197978 0)
(-0.000431359 -0.0019866 0)
(-0.000449468 -0.00199383 0)
(-0.000466517 -0.00200146 0)
(-0.000482303 -0.0020095 0)
(-0.000496628 -0.00201793 0)
(-0.000509303 -0.00202673 0)
(-0.000520154 -0.0020359 0)
(-0.000529019 -0.0020454 0)
(-0.000535745 -0.0020552 0)
(-0.000540196 -0.0020652 0)
(-0.000542197 -0.00207514 0)
(-0.000541543 -0.00208434 0)
(-0.000537766 -0.00209336 0)
(-0.000530576 -0.00210261 0)
(-0.000519804 -0.00211214 0)
(-0.000505328 -0.00212195 0)
(-0.000487082 -0.002132 0)
(-0.000465055 -0.00214228 0)
(-0.000439284 -0.00215274 0)
(5.7685e-06 6.99904e-05 0)
(-1.94788e-05 7.21058e-05 0)
(-8.74907e-05 8.82804e-05 0)
(-0.000153111 0.000101305 0)
(-0.000210399 0.000109477 0)
(-0.000264346 0.000115287 0)
(-0.000317402 0.000119829 0)
(-0.000370293 0.000123698 0)
(-0.000423242 0.000127231 0)
(-0.000476304 0.000130614 0)
(-0.000529466 0.000133938 0)
(-0.000582688 0.000137246 0)
(-0.000635905 0.000140543 0)
(-0.000689022 0.000143815 0)
(-0.000741906 0.000147032 0)
(-0.00079438 0.000150154 0)
(-0.000846222 0.000153134 0)
(-0.00089716 0.000155919 0)
(-0.000946875 0.000158455 0)
(-0.000995007 0.000160687 0)
(-0.00104116 0.000162564 0)
(-0.00108491 0.000164039 0)
(-0.00112581 0.000165073 0)
(-0.00116341 0.000165637 0)
(-0.00119728 0.000165712 0)
(-0.001227 0.000165293 0)
(-0.00125216 0.000164381 0)
(-0.0012724 0.000162982 0)
(-0.0012874 0.000161096 0)
(-0.0012968 0.000158718 0)
(-0.00130027 0.000155841 0)
(-0.00129765 0.000152356 0)
(-0.00128821 0.000147544 0)
(-0.00127137 0.000141577 0)
(-0.00124686 0.000134798 0)
(-0.00121452 0.000127355 0)
(-0.00117431 0.000119353 0)
(-0.00112631 0.000110881 0)
(-0.00107064 0.000102022 0)
(-0.00100752 9.28561e-05 0)
(2.66971e-06 0.000170151 0)
(-3.39744e-05 0.000243231 0)
(-0.000121607 0.000253903 0)
(-0.000214975 0.000254319 0)
(-0.000302747 0.000253568 0)
(-0.000386821 0.000252765 0)
(-0.000468852 0.000251909 0)
(-0.000549655 0.000250954 0)
(-0.000629704 0.000249904 0)
(-0.00070923 0.000248782 0)
(-0.000788295 0.0002476 0)
(-0.000866849 0.000246345 0)
(-0.000944762 0.000244976 0)
(-0.00102183 0.000243432 0)
(-0.0010978 0.000241634 0)
(-0.00117235 0.000239495 0)
(-0.00124508 0.00023692 0)
(-0.00131557 0.000233819 0)
(-0.00138333 0.000230106 0)
(-0.00144784 0.000225705 0)
(-0.00150856 0.000220557 0)
(-0.00156492 0.000214622 0)
(-0.00161635 0.000207881 0)
(-0.00166229 0.000200343 0)
(-0.00170221 0.000192041 0)
(-0.0017356 0.000183029 0)
(-0.001762 0.000173376 0)
(-0.00178099 0.000163145 0)
(-0.00179216 0.000152372 0)
(-0.00179513 0.000141037 0)
(-0.00178957 0.00012898 0)
(-0.0017748 0.000115848 0)
(-0.00175023 0.000101666 0)
(-0.00171596 8.68515e-05 0)
(-0.00167197 7.17683e-05 0)
(-0.00161836 5.668e-05 0)
(-0.00155533 4.18031e-05 0)
(-0.00148315 2.73241e-05 0)
(-0.00140215 1.34071e-05 0)
(-0.00131272 2.00439e-07 0)
(-1.41409e-05 0.000115849 0)
(-7.0785e-05 0.000195874 0)
(-0.000165172 0.000214304 0)
(-0.000269632 0.000215348 0)
(-0.000374579 0.000212786 0)
(-0.000478541 0.000210158 0)
(-0.000581129 0.000208087 0)
(-0.000682327 0.000206444 0)
(-0.000782271 0.000205012 0)
(-0.000881034 0.00020362 0)
(-0.000978575 0.000202132 0)
(-0.00107475 0.000200423 0)
(-0.00116932 0.000198365 0)
(-0.00126197 0.000195817 0)
(-0.00135233 0.000192629 0)
(-0.00143994 0.000188647 0)
(-0.00152433 0.000183719 0)
(-0.00160495 0.000177702 0)
(-0.00168123 0.000170465 0)
(-0.00175258 0.000161902 0)
(-0.00181842 0.00015193 0)
(-0.00187812 0.0001405 0)
(-0.00193112 0.000127599 0)
(-0.00197685 0.000113249 0)
(-0.00201478 9.75099e-05 0)
(-0.00204444 8.04708e-05 0)
(-0.00206541 6.22379e-05 0)
(-0.00207729 4.29101e-05 0)
(-0.00207972 2.25594e-05 0)
(-0.0020723 1.23268e-06 0)
(-0.00205451 -2.11031e-05 0)
(-0.00202567 -4.48324e-05 0)
(-0.00198614 -6.96606e-05 0)
(-0.00193621 -9.51054e-05 0)
(-0.00187618 -0.00012076 0)
(-0.00180643 -0.000146294 0)
(-0.00172737 -0.00017143 0)
(-0.00163945 -0.000195929 0)
(-0.00154311 -0.000219588 0)
(-0.00143882 -0.000242222 0)
(-2.07958e-05 0.000151767 0)
(-8.81873e-05 0.000269597 0)
(-0.000190615 0.000308374 0)
(-0.000304493 0.000317782 0)
(-0.000421101 0.000317857 0)
(-0.000538057 0.000315651 0)
(-0.000654133 0.000313275 0)
(-0.00076875 0.000311132 0)
(-0.000881677 0.000309125 0)
(-0.000992744 0.000307049 0)
(-0.00110174 0.000304689 0)
(-0.00120839 0.000301835 0)
(-0.00131236 0.000298279 0)
(-0.00141322 0.000293813 0)
(-0.00151051 0.000288229 0)
(-0.00160373 0.000281325 0)
(-0.00169233 0.000272909 0)
(-0.00177574 0.00026281 0)
(-0.00185338 0.000250882 0)
(-0.00192467 0.000237008 0)
(-0.00198904 0.000221113 0)
(-0.00204591 0.000203163 0)
(-0.00209478 0.000183169 0)
(-0.00213514 0.000161189 0)
(-0.00216655 0.000137327 0)
(-0.00218862 0.000111721 0)
(-0.00220103 8.45181e-05 0)
(-0.00220348 5.58367e-05 0)
(-0.00219563 2.57206e-05 0)
(-0.00217698 -5.88507e-06 0)
(-0.00214707 -3.93798e-05 0)
(-0.00210623 -7.4224e-05 0)
(-0.00205489 -0.000109817 0)
(-0.00199357 -0.000145656 0)
(-0.00192282 -0.000181319 0)
(-0.00184318 -0.00021645 0)
(-0.00175521 -0.000250758 0)
(-0.00165946 -0.000284006 0)
(-0.00155645 -0.000316 0)
(-0.00144667 -0.000346573 0)
(-2.15543e-05 0.000206441 0)
(-9.26661e-05 0.000368888 0)
(-0.000201032 0.000426775 0)
(-0.000321498 0.000443884 0)
(-0.000445151 0.000446346 0)
(-0.000569493 0.000444043 0)
(-0.000693037 0.00044041 0)
(-0.000814914 0.000436441 0)
(-0.000934625 0.000432264 0)
(-0.00105179 0.000427722 0)
(-0.00116605 0.000422576 0)
(-0.00127701 0.000416564 0)
(-0.00138422 0.000409425 0)
(-0.00148723 0.000400903 0)
(-0.00158551 0.00039075 0)
(-0.00167855 0.000378736 0)
(-0.0017658 0.000364651 0)
(-0.00184671 0.000348313 0)
(-0.00192074 0.000329579 0)
(-0.00198738 0.000308347 0)
(-0.00204612 0.000284563 0)
(-0.00209649 0.000258223 0)
(-0.00213807 0.00022938 0)
(-0.00217047 0.00019814 0)
(-0.00219336 0.000164658 0)
(-0.00220646 0.000129128 0)
(-0.00220957 9.17321e-05 0)
(-0.00220247 5.25805e-05 0)
(-0.00218472 1.16647e-05 0)
(-0.00215597 -3.11773e-05 0)
(-0.00211656 -7.56768e-05 0)
(-0.00206692 -0.000120958 0)
(-0.00200763 -0.000166374 0)
(-0.00193935 -0.000211406 0)
(-0.00186275 -0.000255619 0)
(-0.0017785 -0.000298662 0)
(-0.00168727 -0.000340263 0)
(-0.00158968 -0.000380227 0)
(-0.00148626 -0.000418412 0)
(-0.0013775 -0.000454707 0)
(-2.06364e-05 0.000257755 0)
(-9.13711e-05 0.000464579 0)
(-0.000201055 0.00054123 0)
(-0.00032351 0.000565987 0)
(-0.000449448 0.000570925 0)
(-0.000576172 0.000568547 0)
(-0.000702004 0.000563504 0)
(-0.000825873 0.000557352 0)
(-0.000947099 0.00055046 0)
(-0.00106515 0.000542757 0)
(-0.00117954 0.000534011 0)
(-0.00128979 0.000523947 0)
(-0.00139542 0.000512278 0)
(-0.00149591 0.000498725 0)
(-0.00159076 0.000483024 0)
(-0.00167948 0.000464938 0)
(-0.00176154 0.000444258 0)
(-0.00183648 0.000420815 0)
(-0.00190384 0.000394482 0)
(-0.00196317 0.000365187 0)
(-0.00201409 0.000332908 0)
(-0.00205625 0.000297684 0)
(-0.00208933 0.000259613 0)
(-0.00211308 0.00021885 0)
(-0.00212727 0.000175604 0)
(-0.00213178 0.000130108 0)
(-0.00212647 8.25502e-05 0)
(-0.00211115 3.30168e-05 0)
(-0.00208515 -1.84592e-05 0)
(-0.00204912 -7.19362e-05 0)
(-0.00200321 -0.000126475 0)
(-0.00194803 -0.000181177 0)
(-0.00188425 -0.00023535 0)
(-0.00181262 -0.000288429 0)
(-0.0017339 -0.00033996 0)
(-0.00164889 -0.000389601 0)
(-0.00155833 -0.000437125 0)
(-0.00146293 -0.000482407 0)
(-0.00136326 -0.000525395 0)
(-0.00125978 -0.000566077 0)
(-1.87901e-05 0.000305992 0)
(-8.59903e-05 0.000557472 0)
(-0.000192563 0.000653969 0)
(-0.000312615 0.000687054 0)
(-0.000436574 0.000694794 0)
(-0.000561418 0.000692439 0)
(-0.000685241 0.000685901 0)
(-0.000806812 0.000677316 0)
(-0.00092532 0.000667313 0)
(-0.00104013 0.000655932 0)
(-0.00115067 0.000642986 0)
(-0.00125643 0.000628213 0)
(-0.00135689 0.000611328 0)
(-0.00145156 0.000592058 0)
(-0.00153996 0.000570148 0)
(-0.00162164 0.000545373 0)
(-0.00169617 0.000517548 0)
(-0.00176315 0.000486529 0)
(-0.00182222 0.000452224 0)
(-0.00187306 0.000414598 0)
(-0.00191539 0.000373673 0)
(-0.00194898 0.000329533 0)
(-0.00197363 0.000282322 0)
(-0.00198921 0.000232244 0)
(-0.0019956 0.000179547 0)
(-0.00199276 0.000124482 0)
(-0.00198064 6.72215e-05 0)
(-0.00195882 7.80268e-06 0)
(-0.00192712 -5.37233e-05 0)
(-0.00188624 -0.000116838 0)
(-0.00183636 -0.000180435 0)
(-0.00177817 -0.000243557 0)
(-0.0017124 -0.000305424 0)
(-0.00163987 -0.000365404 0)
(-0.00156146 -0.000423003 0)
(-0.00147808 -0.000477887 0)
(-0.00139062 -0.000529891 0)
(-0.00129985 -0.000578991 0)
(-0.00120643 -0.00062527 0)
(-0.00111083 -0.000668861 0)
(-1.61547e-05 0.000350219 0)
(-7.72573e-05 0.00064571 0)
(-0.000177098 0.00076292 0)
(-0.000291083 0.00080499 0)
(-0.000409519 0.000815801 0)
(-0.000529004 0.000813458 0)
(-0.000647395 0.000805229 0)
(-0.000763317 0.000793881 0)
(-0.000875857 0.000780336 0)
(-0.000984314 0.000764776 0)
(-0.00108809 0.000747085 0)
(-0.00118664 0.00072704 0)
(-0.00127947 0.000704387 0)
(-0.00136612 0.000678879 0)
(-0.00144616 0.00065029 0)
(-0.00151922 0.000618429 0)
(-0.00158494 0.000583147 0)
(-0.00164303 0.00054434 0)
(-0.00169323 0.000501959 0)
(-0.00173532 0.000456012 0)
(-0.00176914 0.000406568 0)
(-0.00179458 0.000353753 0)
(-0.00181153 0.000297754 0)
(-0.00181994 0.000238809 0)
(-0.00181979 0.000177185 0)
(-0.0018111 0.000113112 0)
(-0.00179375 4.67262e-05 0)
(-0.00176693 -2.19063e-05 0)
(-0.00173171 -9.27253e-05 0)
(-0.0016878 -0.000164606 0)
(-0.00163572 -0.000236379 0)
(-0.00157618 -0.000306992 0)
(-0.00150996 -0.000375552 0)
(-0.00143796 -0.000441324 0)
(-0.00136119 -0.00050375 0)
(-0.00128074 -0.000562494 0)
(-0.00119764 -0.00061746 0)
(-0.00111282 -0.000668759 0)
(-0.00102702 -0.000716656 0)
(-0.00094076 -0.000761487 0)
(-1.30015e-05 0.000388664 0)
(-6.61089e-05 0.000726037 0)
(-0.000156352 0.000864347 0)
(-0.0002613 0.000916005 0)
(-0.000371349 0.000930216 0)
(-0.000482725 0.00092795 0)
(-0.000593042 0.000917911 0)
(-0.000700788 0.000903566 0)
(-0.000804973 0.000886179 0)
(-0.000904853 0.000866104 0)
(-0.000999818 0.000843322 0)
(-0.00108934 0.000817673 0)
(-0.00117295 0.000788955 0)
(-0.00125024 0.000756964 0)
(-0.00132086 0.000721522 0)
(-0.00138448 0.000682482 0)
(-0.00144087 0.000639744 0)
(-0.0014898 0.000593251 0)
(-0.00153113 0.000543003 0)
(-0.00156473 0.000489051 0)
(-0.00159055 0.000431506 0)
(-0.00160853 0.000370532 0)
(-0.00161868 0.000306346 0)
(-0.00162098 0.0002392 0)
(-0.00161549 0.000169349 0)
(-0.00160224 9.69469e-05 0)
(-0.00158099 2.20272e-05 0)
(-0.00155074 -5.51923e-05 0)
(-0.00151296 -0.000134386 0)
(-0.00146717 -0.000214244 0)
(-0.00141395 -0.000293431 0)
(-0.00135399 -0.000370735 0)
(-0.00128813 -0.000445104 0)
(-0.00121737 -0.000515665 0)
(-0.00114289 -0.000581757 0)
(-0.00106594 -0.000643018 0)
(-0.000987766 -0.000699428 0)
(-0.000909477 -0.000751267 0)
(-0.00083195 -0.000799033 0)
(-0.000755777 -0.000843326 0)
(-9.60639e-06 0.000420164 0)
(-5.34621e-05 0.000796071 0)
(-0.000131947 0.000955455 0)
(-0.000225531 0.00101729 0)
(-0.000324954 0.00103535 0)
(-0.000426112 0.00103337 0)
(-0.000526388 0.00102154 0)
(-0.000624135 0.00100413 0)
(-0.00071829 0.000982768 0)
(-0.000808083 0.000958034 0)
(-0.000892908 0.000930028 0)
(-0.000972263 0.000898674 0)
(-0.00104573 0.000863835 0)
(-0.00111295 0.000825369 0)
(-0.00117363 0.000783153 0)
(-0.00122754 0.000737098 0)
(-0.00127451 0.000687155 0)
(-0.0013144 0.00063332 0)
(-0.00134716 0.000575639 0)
(-0.00137274 0.000514204 0)
(-0.00139114 0.00044916 0)
(-0.0014024 0.000380694 0)
(-0.00140652 0.000309035 0)
(-0.00140353 0.000234431 0)
(-0.0013935 0.000157101 0)
(-0.00137641 7.71353e-05 0)
(-0.00135145 -5.53575e-06 0)
(-0.00131932 -9.07922e-05 0)
(-0.00127971 -0.000177698 0)
(-0.00123272 -0.000264883 0)
(-0.00117892 -0.000350835 0)
(-0.00111901 -0.000434136 0)
(-0.00105389 -0.000513534 0)
(-0.000984687 -0.000587969 0)
(-0.000912732 -0.000656632 0)
(-0.000839491 -0.000719101 0)
(-0.000766434 -0.000775437 0)
(-0.000694878 -0.00082612 0)
(-0.000625863 -0.000871937 0)
(-0.000560099 -0.000913811 0)
(-6.18943e-06 0.000444168 0)
(-4.01051e-05 0.000854295 0)
(-0.000105331 0.00103431 0)
(-0.000185831 0.00110684 0)
(-0.00027295 0.0011293 0)
(-0.000362338 0.00112796 0)
(-0.000451168 0.00111454 0)
(-0.000537663 0.00109412 0)
(-0.000620686 0.00106882 0)
(-0.000699444 0.00103946 0)
(-0.00077334 0.00100627 0)
(-0.000841906 0.000969293 0)
(-0.000904765 0.00092847 0)
(-0.000961619 0.000883726 0)
(-0.00101224 0.000835005 0)
(-0.00105646 0.000782275 0)
(-0.00109418 0.000725546 0)
(-0.00112533 0.000664864 0)
(-0.00114992 0.000600314 0)
(-0.00116795 0.000532025 0)
(-0.00117949 0.000460162 0)
(-0.00118458 0.00038492 0)
(-0.00118326 0.000306521 0)
(-0.00117558 0.000225177 0)
(-0.00116157 0.000141032 0)
(-0.00114113 5.41037e-05 0)
(-0.00111309 -3.56427e-05 0)
(-0.00107896 -0.000128164 0)
(-0.00103775 -0.000222191 0)
(-0.0009898 -0.000316143 0)
(-0.000935616 -0.000408283 0)
(-0.000875915 -0.000496945 0)
(-0.000811686 -0.000580636 0)
(-0.000744161 -0.000658077 0)
(-0.000674825 -0.000728256 0)
(-0.000605362 -0.00079065 0)
(-0.000537474 -0.000845398 0)
(-0.000472696 -0.000893207 0)
(-0.00041224 -0.000935212 0)
(-0.000356971 -0.000972711 0)
(-2.92788e-06 0.000460557 0)
(-2.67083e-05 0.000899822 0)
(-7.77763e-05 0.00109957 0)
(-0.000144013 0.00118323 0)
(-0.000217639 0.0012107 0)
(-0.000294171 0.00121048 0)
(-0.00037061 0.00119579 0)
(-0.00044505 0.0011726 0)
(-0.00051628 0.00114354 0)
(-0.000583478 0.00110971 0)
(-0.000646055 0.00107153 0)
(-0.00070357 0.00102917 0)
(-0.00075569 0.000982638 0)
(-0.000802168 0.000931955 0)
(-0.000842827 0.000877124 0)
(-0.000877555 0.000818179 0)
(-0.000906297 0.000755181 0)
(-0.000929047 0.000688224 0)
(-0.000945837 0.000617431 0)
(-0.000956727 0.000542952 0)
(-0.000961788 0.000464963 0)
(-0.000961083 0.000383654 0)
(-0.00095465 0.000299222 0)
(-0.000942517 0.000211826 0)
(-0.00092472 0.000121497 0)
(-0.000900976 2.81097e-05 0)
(-0.000870027 -6.82556e-05 0)
(-0.000833648 -0.000167343 0)
(-0.000790814 -0.000267838 0)
(-0.000741868 -0.000367977 0)
(-0.000687278 -0.000465723 0)
(-0.000627797 -0.0005591 0)
(-0.000564501 -0.000646333 0)
(-0.000498713 -0.000725902 0)
(-0.000432068 -0.000796552 0)
(-0.000366465 -0.000857612 0)
(-0.000303814 -0.000909294 0)
(-0.000245846 -0.000952544 0)
(-0.000193932 -0.000988872 0)
(-0.000149157 -0.00102001 0)
(3.07548e-08 0.000469567 0)
(-1.38438e-05 0.000932317 0)
(-5.03752e-05 0.00115043 0)
(-0.000101641 0.00124545 0)
(-0.000161002 0.00127858 0)
(-0.00022397 0.00128008 0)
(-0.000287431 0.00126459 0)
(-0.000349363 0.00123899 0)
(-0.00040847 0.00120647 0)
(-0.000463893 0.00116847 0)
(-0.000515042 0.00112562 0)
(-0.000561495 0.0010782 0)
(-0.000602956 0.00102636 0)
(-0.000639214 0.000970162 0)
(-0.000670134 0.0009097 0)
(-0.000695641 0.00084506 0)
(-0.000715714 0.000776357 0)
(-0.000730378 0.000703725 0)
(-0.000739689 0.000627316 0)
(-0.000743721 0.000547292 0)
(-0.000742547 0.000463827 0)
(-0.000736217 0.000377092 0)
(-0.000724741 0.000287237 0)
(-0.000708129 0.000194351 0)
(-0.000686337 9.837e-05 0)
(-0.000658437 -9.19082e-07 0)
(-0.000625012 -0.000103407 0)
(-0.000586161 -0.000208445 0)
(-0.000541532 -0.000314752 0)
(-0.000491418 -0.000420452 0)
(-0.000436273 -0.000523172 0)
(-0.000376927 -0.000620576 0)
(-0.000314557 -0.000710573 0)
(-0.000250551 -0.000791384 0)
(-0.000186718 -0.000861441 0)
(-0.000125171 -0.000919908 0)
(-6.79143e-05 -0.000967101 0)
(-1.68268e-05 -0.0010042 0)
(2.66051e-05 -0.00103308 0)
(6.08713e-05 -0.00105588 0)
(2.58987e-06 0.000471722 0)
(-1.96773e-06 0.000951894 0)
(-2.40575e-05 0.00118657 0)
(-6.00494e-05 0.00129297 0)
(-0.000104711 0.00133236 0)
(-0.000153715 0.00133626 0)
(-0.00020389 0.00132054 0)
(-0.000253115 0.00129302 0)
(-0.000300009 0.00125747 0)
(-0.000343662 0.00121569 0)
(-0.000383466 0.00116855 0)
(-0.000419012 0.00111651 0)
(-0.000450021 0.00105979 0)
(-0.000476314 0.000998572 0)
(-0.00049778 0.000932994 0)
(-0.000514364 0.000863201 0)
(-0.000526065 0.000789359 0)
(-0.000532919 0.000711636 0)
(-0.000534991 0.000630203 0)
(-0.000532353 0.000545228 0)
(-0.000525067 0.000456871 0)
(-0.000513162 0.000365265 0)
(-0.000496624 0.000270502 0)
(-0.000475446 0.000172559 0)
(-0.00044945 7.12754e-05 0)
(-0.000417069 -3.33734e-05 0)
(-0.000380626 -0.000141288 0)
(-0.00033888 -0.000251669 0)
(-0.000292088 -0.000363131 0)
(-0.000240483 -0.000473736 0)
(-0.000184597 -0.000580729 0)
(-0.000125325 -0.000681425 0)
(-6.38821e-05 -0.000773433 0)
(-1.6263e-06 -0.00085475 0)
(5.92625e-05 -0.000923146 0)
(0.00011641 -0.000977558 0)
(0.000167985 -0.0010187 0)
(0.00021195 -0.00104797 0)
(0.000246608 -0.00106755 0)
(0.000270702 -0.00108033 0)
(4.78418e-06 0.000467911 0)
(8.68168e-06 0.000958977 0)
(4.27528e-07 0.00120795 0)
(-2.03842e-05 0.00132558 0)
(-5.01874e-05 0.00137176 0)
(-8.50554e-05 0.00137876 0)
(-0.00012184 0.00136349 0)
(-0.000158346 0.00133463 0)
(-0.000193102 0.00129655 0)
(-0.000225135 0.00125146 0)
(-0.000253805 0.00120051 0)
(-0.000278696 0.0011443 0)
(-0.00029954 0.0010832 0)
(-0.000316169 0.00101746 0)
(-0.000328488 0.000947296 0)
(-0.000336446 0.000872887 0)
(-0.000340039 0.000794451 0)
(-0.00033931 0.000712188 0)
(-0.000334317 0.000626279 0)
(-0.000325119 0.000536888 0)
(-0.000311755 0.000444154 0)
(-0.000294223 0.000348173 0)
(-0.0002725 0.00024897 0)
(-0.000246586 0.000146392 0)
(-0.000216039 4.00648e-05 0)
(-0.000179217 -6.96038e-05 0)
(-0.000138942 -0.00018231 0)
(-9.38885e-05 -0.000297413 0)
(-4.45026e-05 -0.000413468 0)
(9.05808e-06 -0.00052873 0)
(6.57997e-05 -0.000639355 0)
(0.00012487 -0.000742336 0)
(0.00018518 -0.00083515 0)
(0.000245056 -0.000915185 0)
(0.000302496 -0.00098035 0)
(0.000355404 -0.00102974 0)
(0.000401603 -0.00106375 0)
(0.000438875 -0.00108393 0)
(0.00046533 -0.00109285 0)
(0.000479573 -0.0010939 0)
(6.66042e-06 0.000458647 0)
(1.80773e-05 0.000954992 0)
(2.26123e-05 0.00121515 0)
(1.64519e-05 0.00134319 0)
(1.35898e-06 0.00139669 0)
(-1.93982e-05 0.00140757 0)
(-4.28211e-05 0.00139347 0)
(-6.67079e-05 0.0013639 0)
(-8.95028e-05 0.00132387 0)
(-0.000110155 0.00127601 0)
(-0.000127972 0.00122174 0)
(-0.000142515 0.00116187 0)
(-0.000153511 0.0010969 0)
(-0.00016079 0.00102715 0)
(-0.000164259 0.000952914 0)
(-0.000163856 0.000874411 0)
(-0.000159569 0.000791903 0)
(-0.000151433 0.000705613 0)
(-0.000139494 0.000615727 0)
(-0.000123786 0.000522397 0)
(-0.000104312 0.00042573 0)
(-8.10207e-05 0.00032577 0)
(-5.38514e-05 0.000222447 0)
(-2.27858e-05 0.000115415 0)
(1.34981e-05 3.7609e-06 0)
(5.4223e-05 -0.000110774 0)
(9.84228e-05 -0.000227819 0)
(0.000146753 -0.000346994 0)
(0.00019866 -0.000466722 0)
(0.000253596 -0.000584532 0)
(0.0003109 -0.000697262 0)
(0.00036986 -0.000801681 0)
(0.000429287 -0.000894564 0)
(0.000487443 -0.000972853 0)
(0.000542256 -0.00103418 0)
(0.000591458 -0.00107744 0)
(0.000632649 -0.00110299 0)
(0.000663473 -0.00111255 0)
(0.000681898 -0.00110914 0)
(0.000686401 -0.00109669 0)
(8.18793e-06 0.000444682 0)
(2.62093e-05 0.00094074 0)
(4.23758e-05 0.00120928 0)
(4.98811e-05 0.00134659 0)
(4.8939e-05 0.00140728 0)
(4.20757e-05 0.00142265 0)
(3.18672e-05 0.00141056 0)
(2.04397e-05 0.00138108 0)
(9.39809e-06 0.00133978 0)
(-1.39157e-07 0.0012897 0)
(-7.41222e-06 0.00123262 0)
(-1.19338e-05 0.0011696 0)
(-1.34002e-05 0.00110124 0)
(-1.16206e-05 0.00102798 0)
(-6.48602e-06 0.000950141 0)
(2.07549e-06 0.000867917 0)
(1.40706e-05 0.000781704 0)
(2.94841e-05 0.000691754 0)
(4.82996e-05 0.000598227 0)
(7.05072e-05 0.000501256 0)
(9.61319e-05 0.000400907 0)
(0.000125257 0.000297153 0)
(0.000157947 0.000189807 0)
(0.000194264 7.8484e-05 0)
(0.000236006 -3.69339e-05 0)
(0.000280132 -0.000155202 0)
(0.000327976 -0.000275904 0)
(0.000379334 -0.000398446 0)
(0.000433657 -0.000521163 0)
(0.000490424 -0.000641433 0)
(0.000549014 -0.000755949 0)
(0.000608591 -0.000861097 0)
(0.00066785 -0.000953177 0)
(0.00072497 -0.00102872 0)
(0.000777732 -0.00108507 0)
(0.000823649 -0.0011209 0)
(0.000860117 -0.00113653 0)
(0.000884642 -0.00113392 0)
(0.000895084 -0.0011165 0)
(0.000889848 -0.00108878 0)
(9.36541e-06 0.000426806 0)
(3.30446e-05 0.000917349 0)
(5.96446e-05 0.00119135 0)
(7.97392e-05 0.00133658 0)
(9.21155e-05 0.0014042 0)
(9.85587e-05 0.00142436 0)
(0.000101193 0.00141487 0)
(0.000101962 0.00138614 0)
(0.000102441 0.00134422 0)
(0.000103783 0.00129259 0)
(0.000106787 0.0012333 0)
(0.000112 0.00116762 0)
(0.00011978 0.00109633 0)
(0.000130352 0.00101996 0)
(0.000143848 0.000938923 0)
(0.000160324 0.000853541 0)
(0.000179794 0.000764147 0)
(0.000202274 0.000670998 0)
(0.000227772 0.000574275 0)
(0.000256297 0.000474095 0)
(0.000287889 0.000370489 0)
(0.000322616 0.000263373 0)
(0.0003605 0.000152447 0)
(0.000401819 3.71958e-05 0)
(0.000448044 -8.19758e-05 0)
(0.000496276 -0.000203598 0)
(0.000547821 -0.000327492 0)
(0.000602349 -0.000452913 0)
(0.0006594 -0.000578084 0)
(0.000718503 -0.000700255 0)
(0.000779001 -0.000815916 0)
(0.0008399 -0.000921061 0)
(0.000899721 -0.00101149 0)
(0.000956469 -0.00108329 0)
(0.00100771 -0.00113344 0)
(0.00105071 -0.00116044 0)
(0.00108268 -0.00116459 0)
(0.00110098 -0.00114812 0)
(0.00110341 -0.00111493 0)
(0.00108836 -0.00107017 0)
(1.02173e-05 0.000405776 0)
(3.85996e-05 0.000886013 0)
(7.43756e-05 0.00116252 0)
(0.000105899 0.00131416 0)
(0.000130643 0.00138822 0)
(0.000149658 0.00141332 0)
(0.000164593 0.0014069 0)
(0.000177143 0.00137955 0)
(0.000188792 0.00133766 0)
(0.000200688 0.00128507 0)
(0.000213667 0.00122412 0)
(0.000228317 0.00115631 0)
(0.00024504 0.00108258 0)
(0.000264091 0.00100358 0)
(0.000285625 0.00091981 0)
(0.000309715 0.000831653 0)
(0.000336394 0.000739453 0)
(0.000365692 0.00064348 0)
(0.000397633 0.000543917 0)
(0.000432244 0.000440867 0)
(0.000469587 0.000334325 0)
(0.000509721 0.000224138 0)
(0.000552683 0.000109901 0)
(0.000599748 -8.92999e-06 0)
(0.00064941 -0.000131199 0)
(0.000701614 -0.000255781 0)
(0.000756802 -0.000382488 0)
(0.000814655 -0.000510439 0)
(0.000874787 -0.000637728 0)
(0.000936717 -0.000761432 0)
(0.000999701 -0.000877753 0)
(0.00106257 -0.00098224 0)
(0.00112363 -0.00107017 0)
(0.00118062 -0.00113714 0)
(0.00123081 -0.00117977 0)
(0.00127122 -0.00119635 0)
(0.00129883 -0.00118729 0)
(0.00131088 -0.00115514 0)
(0.00130516 -0.00110436 0)
(0.00128013 -0.00104079 0)
(1.07748e-05 0.000382307 0)
(4.29232e-05 0.000847929 0)
(8.65738e-05 0.00112403 0)
(0.000128283 0.00128045 0)
(0.000164339 0.00136024 0)
(0.00019507 0.00139022 0)
(0.000221633 0.00138721 0)
(0.000245428 0.00136175 0)
(0.000267799 0.00132047 0)
(0.000289859 0.0012675 0)
(0.000312451 0.00120545 0)
(0.000336194 0.00113602 0)
(0.00036152 0.00106032 0)
(0.000388714 0.000979144 0)
(0.000417955 0.000893063 0)
(0.000449341 0.000802531 0)
(0.000482928 0.000707914 0)
(0.000518756 0.00060949 0)
(0.000556861 0.000507447 0)
(0.000597287 0.000401869 0)
(0.000640106 0.000292714 0)
(0.000685372 0.000179728 0)
(0.000733266 6.23842e-05 0)
(0.000785295 -5.9514e-05 0)
(0.000838822 -0.00018437 0)
(0.000894997 -0.000311632 0)
(0.000953884 -0.000440942 0)
(0.00101526 -0.000571248 0)
(0.00107881 -0.00070048 0)
(0.00114402 -0.000825484 0)
(0.00121003 -0.000942081 0)
(0.00127547 -0.00104531 0)
(0.00133836 -0.00112986 0)
(0.00139611 -0.00119081 0)
(0.00144564 -0.00122442 0)
(0.00148365 -0.00122885 0)
(0.0015069 -0.00120467 0)
(0.00151254 -0.00115487 0)
(0.00149838 -0.0010846 0)
(0.00146304 -0.00100045 0)
(1.10705e-05 0.000357066 0)
(4.60832e-05 0.000804295 0)
(9.62874e-05 0.00107718 0)
(0.000146874 0.00123662 0)
(0.000193091 0.00132126 0)
(0.000234572 0.00135586 0)
(0.000271974 0.00135641 0)
(0.000306374 0.00133325 0)
(0.000338939 0.00129309 0)
(0.000370704 0.00124026 0)
(0.000402499 0.00117763 0)
(0.000434952 0.00110707 0)
(0.000468517 0.00102988 0)
(0.000503503 0.000946968 0)
(0.000540111 0.000858997 0)
(0.000578465 0.000766486 0)
(0.00061864 0.000669833 0)
(0.00066069 0.000569329 0)
(0.000704662 0.00046516 0)
(0.000750623 0.000357391 0)
(0.000798653 0.000245923 0)
(0.000848831 0.000130389 0)
(0.000901928 1.01409e-05 0)
(0.000957918 -0.000114306 0)
(0.00101552 -0.000241502 0)
(0.00107562 -0.000371238 0)
(0.00113826 -0.000503029 0)
(0.00120335 -0.000635627 0)
(0.00127063 -0.000766744 0)
(0.00133953 -0.000892905 0)
(0.00140905 -0.00100946 0)
(0.00147757 -0.00111083 0)
(0.00154278 -0.00119108 0)
(0.00160166 -0.00124471 0)
(0.00165075 -0.00126762 0)
(0.00168637 -0.00125795 0)
(0.00170505 -0.00121654 0)
(0.00170387 -0.001147 0)
(0.00168075 -0.00105525 0)
(0.00163456 -0.000948794 0)
(1.11375e-05 0.000330669 0)
(4.81619e-05 0.00075629 0)
(0.000103603 0.00102328 0)
(0.000161713 0.00118392 0)
(0.000216859 0.00127238 0)
(0.000268027 0.00131119 0)
(0.000315377 0.00131529 0)
(0.000359645 0.00129468 0)
(0.00040179 0.00125602 0)
(0.000442739 0.00120382 0)
(0.000483277 0.00114107 0)
(0.000524024 0.00106986 0)
(0.000565441 0.00099163 0)
(0.000607854 0.000907403 0)
(0.000651483 0.000817948 0)
(0.00069647 0.000723845 0)
(0.000742906 0.000625526 0)
(0.000790858 0.000523299 0)
(0.000840394 0.000417343 0)
(0.000891604 0.000307689 0)
(0.00094459 0.000194144 0)
(0.000999569 7.61991e-05 0)
(0.00105793 -4.67108e-05 0)
(0.00111741 -0.000173122 0)
(0.00117895 -0.000302492 0)
(0.00124289 -0.000434624 0)
(0.00130935 -0.000568888 0)
(0.00137834 -0.000703826 0)
(0.00144961 -0.000836869 0)
(0.00152255 -0.000964119 0)
(0.00159598 -0.00108034 0)
(0.00166797 -0.00117926 0)
(0.0017358 -0.00125418 0)
(0.001796 -0.00129903 0)
(0.0018446 -0.00130938 0)
(0.00187755 -0.00128343 0)
(0.00189115 -0.00122249 0)
(0.00188243 -0.00113092 0)
(0.00184951 -0.00101566 0)
(0.00179162 -0.000885227 0)
(1.10094e-05 0.000303672 0)
(4.92539e-05 0.000705054 0)
(0.000108643 0.000963675 0)
(0.000172897 0.00112368 0)
(0.000235678 0.0012148 0)
(0.000295381 0.00125721 0)
(0.000351693 0.0012647 0)
(0.000404999 0.00124674 0)
(0.000456029 0.00120989 0)
(0.000505572 0.00115867 0)
(0.000554344 0.00109624 0)
(0.000602933 0.0010248 0)
(0.000651793 0.000945939 0)
(0.000701255 0.000860807 0)
(0.000751548 0.000770259 0)
(0.000802827 0.000674937 0)
(0.000855197 0.000575313 0)
(0.000908738 0.000471707 0)
(0.00096354 0.000364285 0)
(0.00101971 0.000253021 0)
(0.00107741 0.000137599 0)
(0.00113727 1.73613e-05 0)
(0.00119962 -0.000107563 0)
(0.00126307 -0.000235795 0)
(0.00132853 -0.000367288 0)
(0.00139635 -0.000501837 0)
(0.00146675 -0.000638662 0)
(0.00153981 -0.000776075 0)
(0.00161533 -0.00091115 0)
(0.00169257 -0.00103946 0)
(0.00177015 -0.00115507 0)
(0.00184581 -0.00125086 0)
(0.00191634 -0.00131932 0)
(0.00197774 -0.00135374 0)
(0.0020255 -0.00134942 0)
(0.00205514 -0.00130475 0)
(0.00206271 -0.0012217 0)
(0.00204531 -0.00110569 0)
(0.00200131 -0.000964822 0)
(0.00193046 -0.000808809 0)
(1.07188e-05 0.000276569 0)
(4.94617e-05 0.00065167 0)
(0.000111557 0.00089968 0)
(0.000180572 0.00105723 0)
(0.000249649 0.00114977 0)
(0.000316664 0.00119504 0)
(0.000380863 0.00120558 0)
(0.000442287 0.00119025 0)
(0.000501423 0.00115536 0)
(0.000558901 0.00110541 0)
(0.000615341 0.00104362 0)
(0.00067128 0.000972323 0)
(0.000727147 0.000893212 0)
(0.000783263 0.000807549 0)
(0.000839858 0.000716275 0)
(0.000897092 0.000620093 0)
(0.000955077 0.000519508 0)
(0.00101391 0.000414848 0)
(0.00107371 0.000306248 0)
(0.00113463 0.000193588 0)
(0.00119697 7.63907e-05 0)
(0.00126193 -4.60538e-05 0)
(0.00132765 -0.000172365 0)
(0.00139491 -0.0003023 0)
(0.00146421 -0.000435921 0)
(0.00153592 -0.000572967 0)
(0.00161036 -0.000712502 0)
(0.00168765 -0.000852569 0)
(0.00176755 -0.000989801 0)
(0.00184922 -0.00111913 0)
(0.00193101 -0.00123378 0)
(0.00201027 -0.00132565 0)
(0.00208325 -0.00138633 0)
(0.00214535 -0.00140841 0)
(0.00219147 -0.00138701 0)
(0.00221666 -0.00132088 0)
(0.00221677 -0.00121293 0)
(0.00218899 -0.00106985 0)
(0.0021321 -0.000901224 0)
(0.00204646 -0.000718115 0)
(1.02969e-05 0.00024979 0)
(4.88921e-05 0.000597149 0)
(0.000112517 0.000832593 0)
(0.000184929 0.000985949 0)
(0.000258933 0.00107858 0)
(0.000331978 0.00112587 0)
(0.000402913 0.00113899 0)
(0.000471451 0.0011261 0)
(0.000537832 0.0010932 0)
(0.000602511 0.00104468 0)
(0.000665994 0.00098378 0)
(0.000728747 0.000912914 0)
(0.000791154 0.000833874 0)
(0.000853516 0.000748012 0)
(0.000916048 0.000656345 0)
(0.000978908 0.000559633 0)
(0.00104222 0.000458406 0)
(0.00110609 0.000352986 0)
(0.00117067 0.000243444 0)
(0.00123619 0.000129528 0)
(0.00130337 1.05828e-05 0)
(0.00137219 -0.000113236 0)
(0.00144178 -0.000240884 0)
(0.00151293 -0.000372572 0)
(0.00158613 -0.000508421 0)
(0.00166184 -0.000648106 0)
(0.00174042 -0.000790529 0)
(0.00182201 -0.000933418 0)
(0.00190629 -0.00107289 0)
(0.00199228 -0.00120312 0)
(0.00207803 -0.00131633 0)
(0.00216044 -0.00140333 0)
(0.0022352 -0.00145464 0)
(0.00229702 -0.00146218 0)
(0.00234016 -0.00142094 0)
(0.00235919 -0.00133028 0)
(0.00234978 -0.00119431 0)
(0.00230927 -0.00102136 0)
(0.00223697 -0.000822737 0)
(0.00213399 -0.00061105 0)
(9.77239e-06 0.0002237 0)
(4.76523e-05 0.000542419 0)
(0.00011171 0.000763659 0)
(0.000186189 0.000911189 0)