/*--------------------------------*- C++ -*----------------------------------*\
  =========                 |
  \\      /  F ield         | OpenFOAM: The Open Source CFD Toolbox
   \\    /   O peration     | Website:  https://openfoam.org
    \\  /    A nd           | Version:  6
     \\/     M anipulation  |
\*---------------------------------------------------------------------------*/
FoamFile
{
    version     2.0;
    format      ascii;
    class       volVectorField;
    location    "30";
    object      elec;
}
// * * * * * * * * * * * * * * * * * * * * * * * * * * * * * * * * * * * * * //

dimensions      [1 1 -3 0 0 -1 0];

internalField   nonuniform List<vector> 
8800
(
(-9.05381 -137038 -0)
(-24.8009 -137072 -0)
(-37.6678 -137134 -0)
(-49.9092 -137221 -0)
(-62.0437 -137333 -0)
(-74.1724 -137469 -0)
(-86.2609 -137630 -0)
(-98.2389 -137816 -0)
(-110.039 -138025 -0)
(-121.612 -138258 -0)
(-132.917 -138514 -0)
(-143.913 -138792 -0)
(-154.562 -139092 -0)
(-164.824 -139414 -0)
(-174.658 -139755 -0)
(-184.021 -140116 -0)
(-192.87 -140495 -0)
(-201.159 -140891 -0)
(-208.838 -141304 -0)
(-215.855 -141731 -0)
(-222.155 -142172 -0)
(-227.692 -142625 -0)
(-232.45 -143088 -0)
(-236.401 -143560 -0)
(-239.486 -144040 -0)
(-241.65 -144524 -0)
(-242.841 -145013 -0)
(-243.018 -145502 -0)
(-242.155 -145992 -0)
(-240.245 -146478 -0)
(-237.306 -146960 -0)
(-233.369 -147436 -0)
(-228.468 -147903 -0)
(-222.639 -148359 -0)
(-215.892 -148802 -0)
(-208.22 -149231 -0)
(-199.593 -149644 -0)
(-189.962 -150038 -0)
(-179.307 -150412 -0)
(-167.627 -150763 -0)
(-24.6843 -132918 -0)
(-70.4337 -132949 -0)
(-110.891 -133008 -0)
(-149.1 -133095 -0)
(-186.515 -133207 -0)
(-223.559 -133344 -0)
(-260.256 -133507 -0)
(-296.507 -133694 -0)
(-332.187 -133905 -0)
(-367.172 -134140 -0)
(-401.345 -134399 -0)
(-434.59 -134680 -0)
(-466.792 -134984 -0)
(-497.831 -135308 -0)
(-527.583 -135654 -0)
(-555.921 -136019 -0)
(-582.711 -136402 -0)
(-607.815 -136803 -0)
(-631.085 -137221 -0)
(-652.37 -137653 -0)
(-671.512 -138100 -0)
(-688.377 -138558 -0)
(-702.898 -139028 -0)
(-714.991 -139506 -0)
(-724.499 -139992 -0)
(-731.269 -140484 -0)
(-735.16 -140979 -0)
(-736.055 -141477 -0)
(-733.874 -141974 -0)
(-728.582 -142470 -0)
(-720.197 -142961 -0)
(-708.766 -143446 -0)
(-694.352 -143922 -0)
(-677.009 -144388 -0)
(-656.746 -144842 -0)
(-633.544 -145281 -0)
(-607.331 -145703 -0)
(-578.018 -146107 -0)
(-545.57 -146490 -0)
(-510.004 -146849 -0)
(-39.9453 -128993 -0)
(-115.147 -129024 -0)
(-183.371 -129083 -0)
(-248.271 -129169 -0)
(-311.628 -129281 -0)
(-374.115 -129420 -0)
(-435.858 -129584 -0)
(-496.765 -129773 -0)
(-556.672 -129987 -0)
(-615.399 -130225 -0)
(-672.764 -130486 -0)
(-728.581 -130771 -0)
(-782.658 -131078 -0)
(-834.799 -131407 -0)
(-884.797 -131756 -0)
(-932.438 -132126 -0)
(-977.498 -132515 -0)
(-1019.75 -132922 -0)
(-1058.94 -133345 -0)
(-1094.82 -133784 -0)
(-1127.15 -134237 -0)
(-1155.69 -134703 -0)
(-1180.33 -135180 -0)
(-1200.93 -135666 -0)
(-1217.23 -136161 -0)
(-1228.99 -136661 -0)
(-1235.98 -137166 -0)
(-1238.02 -137674 -0)
(-1234.96 -138181 -0)
(-1226.72 -138687 -0)
(-1213.29 -139189 -0)
(-1194.71 -139686 -0)
(-1171.04 -140174 -0)
(-1142.31 -140652 -0)
(-1108.52 -141117 -0)
(-1069.63 -141568 -0)
(-1025.54 -142002 -0)
(-976.14 -142417 -0)
(-921.409 -142811 -0)
(-861.395 -143181 -0)
(-55.3417 -125261 -0)
(-160.087 -125292 -0)
(-256.1 -125351 -0)
(-347.953 -125438 -0)
(-437.68 -125552 -0)
(-526.067 -125691 -0)
(-613.291 -125857 -0)
(-699.264 -126048 -0)
(-783.792 -126265 -0)
(-866.648 -126506 -0)
(-947.592 -126771 -0)
(-1026.37 -127059 -0)
(-1102.72 -127371 -0)
(-1176.37 -127704 -0)
(-1247.03 -128059 -0)
(-1314.39 -128434 -0)
(-1378.15 -128829 -0)
(-1437.98 -129243 -0)
(-1493.53 -129673 -0)
(-1544.46 -130120 -0)
(-1590.41 -130581 -0)
(-1631.09 -131055 -0)
(-1666.34 -131542 -0)
(-1695.92 -132038 -0)
(-1719.49 -132542 -0)
(-1736.73 -133054 -0)
(-1747.31 -133570 -0)
(-1750.97 -134089 -0)
(-1747.5 -134609 -0)
(-1736.76 -135128 -0)
(-1718.69 -135643 -0)
(-1693.28 -136153 -0)
(-1660.56 -136655 -0)
(-1620.56 -137147 -0)
(-1573.22 -137627 -0)
(-1518.49 -138092 -0)
(-1456.23 -138540 -0)
(-1386.34 -138968 -0)
(-1308.81 -139374 -0)
(-1223.72 -139756 -0)
(-70.9627 -121717 -0)
(-205.608 -121748 -0)
(-329.631 -121809 -0)
(-448.663 -121897 -0)
(-565.072 -122012 -0)
(-679.737 -122153 -0)
(-792.85 -122321 -0)
(-904.309 -122515 -0)
(-1013.89 -122734 -0)
(-1121.31 -122978 -0)
(-1226.29 -123247 -0)
(-1328.5 -123540 -0)
(-1427.6 -123856 -0)
(-1523.25 -124195 -0)
(-1615.08 -124556 -0)
(-1702.69 -124938 -0)
(-1785.68 -125340 -0)
(-1863.63 -125761 -0)
(-1936.1 -126200 -0)
(-2002.64 -126656 -0)
(-2062.8 -127127 -0)
(-2116.22 -127611 -0)
(-2162.68 -128108 -0)
(-2201.84 -128616 -0)
(-2233.28 -129133 -0)
(-2256.57 -129657 -0)
(-2271.31 -130187 -0)
(-2277.13 -130720 -0)
(-2273.76 -131255 -0)
(-2260.96 -131789 -0)
(-2238.63 -132320 -0)
(-2206.7 -132846 -0)
(-2165.15 -133364 -0)
(-2113.96 -133873 -0)
(-2053.04 -134369 -0)
(-1982.3 -134850 -0)
(-1901.57 -135313 -0)
(-1810.75 -135757 -0)
(-1709.83 -136179 -0)
(-1599 -136575 -0)
(-86.904 -118355 -0)
(-251.947 -118387 -0)
(-404.284 -118449 -0)
(-550.757 -118538 -0)
(-694.151 -118655 -0)
(-835.451 -118798 -0)
(-974.858 -118968 -0)
(-1112.24 -119165 -0)
(-1247.34 -119388 -0)
(-1379.84 -119636 -0)
(-1509.37 -119909 -0)
(-1635.55 -120207 -0)
(-1757.98 -120529 -0)
(-1876.23 -120874 -0)
(-1989.84 -121242 -0)
(-2098.34 -121631 -0)
(-2201.22 -122041 -0)
(-2297.97 -122471 -0)
(-2388.05 -122920 -0)
(-2470.9 -123386 -0)
(-2545.97 -123868 -0)
(-2612.87 -124365 -0)
(-2671.27 -124875 -0)
(-2720.74 -125397 -0)
(-2760.74 -125928 -0)
(-2790.76 -126468 -0)
(-2810.28 -127013 -0)
(-2818.87 -127563 -0)
(-2816.12 -128115 -0)
(-2801.75 -128666 -0)
(-2775.55 -129216 -0)
(-2737.4 -129760 -0)
(-2687.22 -130297 -0)
(-2624.92 -130824 -0)
(-2550.37 -131339 -0)
(-2463.42 -131839 -0)
(-2363.89 -132321 -0)
(-2251.64 -132783 -0)
(-2126.71 -133222 -0)
(-1989.33 -133635 -0)
(-103.224 -115169 -0)
(-299.251 -115202 -0)
(-480.266 -115264 -0)
(-654.493 -115355 -0)
(-825.204 -115474 -0)
(-993.519 -115620 -0)
(-1159.65 -115793 -0)
(-1323.44 -115992 -0)
(-1484.59 -116219 -0)
(-1642.71 -116471 -0)
(-1797.39 -116749 -0)
(-1948.18 -117053 -0)
(-2094.61 -117381 -0)
(-2236.16 -117733 -0)
(-2372.29 -118109 -0)
(-2502.44 -118507 -0)
(-2626 -118926 -0)
(-2742.36 -119367 -0)
(-2850.88 -119827 -0)
(-2950.88 -120305 -0)
(-3041.73 -120800 -0)
(-3122.97 -121311 -0)
(-3194.21 -121836 -0)
(-3254.83 -122374 -0)
(-3304.2 -122922 -0)
(-3341.71 -123479 -0)
(-3366.74 -124043 -0)
(-3378.73 -124612 -0)
(-3377.19 -125184 -0)
(-3361.73 -125756 -0)
(-3332.07 -126326 -0)
(-3288 -126891 -0)
(-3229.37 -127449 -0)
(-3156.04 -127998 -0)
(-3067.79 -128535 -0)
(-2964.42 -129056 -0)
(-2845.72 -129559 -0)
(-2711.51 -130042 -0)
(-2561.85 -130501 -0)
(-2397.01 -130933 -0)
(-119.939 -112150 -0)
(-347.582 -112184 -0)
(-557.705 -112248 -0)
(-760.062 -112340 -0)
(-958.477 -112461 -0)
(-1154.24 -112609 -0)
(-1347.57 -112785 -0)
(-1538.31 -112989 -0)
(-1726.08 -113219 -0)
(-1910.47 -113476 -0)
(-2090.99 -113760 -0)
(-2267.12 -114070 -0)
(-2438.32 -114405 -0)
(-2604 -114765 -0)
(-2763.51 -115150 -0)
(-2916.21 -115558 -0)
(-3061.38 -115988 -0)
(-3198.32 -116440 -0)
(-3326.25 -116913 -0)
(-3444.4 -117405 -0)
(-3552.04 -117916 -0)
(-3648.66 -118443 -0)
(-3733.73 -118985 -0)
(-3806.47 -119541 -0)
(-3866.14 -120108 -0)
(-3912 -120686 -0)
(-3943.32 -121271 -0)
(-3959.42 -121862 -0)
(-3959.71 -122456 -0)
(-3943.69 -123051 -0)
(-3910.99 -123645 -0)
(-3861.32 -124235 -0)
(-3794.45 -124817 -0)
(-3710.15 -125391 -0)
(-3608.13 -125952 -0)
(-3488.13 -126497 -0)
(-3349.83 -127025 -0)
(-3193.06 -127531 -0)
(-3017.87 -128013 -0)
(-2824.58 -128467 -0)
(-137.034 -109291 -0)
(-396.944 -109325 -0)
(-636.67 -109391 -0)
(-867.609 -109485 -0)
(-1094.19 -109608 -0)
(-1317.89 -109759 -0)
(-1538.98 -109938 -0)
(-1757.26 -110146 -0)
(-1972.32 -110381 -0)
(-2183.7 -110643 -0)
(-2390.84 -110933 -0)
(-2593.16 -111250 -0)
(-2790.02 -111593 -0)
(-2980.77 -111962 -0)
(-3164.66 -112357 -0)
(-3340.95 -112776 -0)
(-3508.82 -113219 -0)
(-3667.43 -113684 -0)
(-3815.92 -114172 -0)
(-3953.38 -114680 -0)
(-4078.99 -115207 -0)
(-4192.17 -115753 -0)
(-4292.23 -116314 -0)
(-4378.21 -116891 -0)
(-4449.21 -117481 -0)
(-4504.38 -118081 -0)
(-4542.86 -118690 -0)
(-4563.85 -119306 -0)
(-4566.64 -119926 -0)
(-4550.62 -120548 -0)
(-4515.33 -121168 -0)
(-4460.4 -121785 -0)
(-4385.49 -122395 -0)
(-4290.31 -122996 -0)
(-4174.47 -123585 -0)
(-4037.58 -124158 -0)
(-3879.27 -124713 -0)
(-3699.3 -125246 -0)
(-3497.68 -125753 -0)
(-3274.81 -126232 -0)
(-154.479 -106583 -0)
(-447.298 -106618 -0)
(-717.193 -106685 -0)
(-977.247 -106781 -0)
(-1232.53 -106906 -0)
(-1484.75 -107060 -0)
(-1734.22 -107243 -0)
(-1980.73 -107455 -0)
(-2223.84 -107695 -0)
(-2463.02 -107964 -0)
(-2697.66 -108261 -0)
(-2927.11 -108585 -0)
(-3150.66 -108937 -0)
(-3367.55 -109316 -0)
(-3576.96 -109722 -0)
(-3778.02 -110153 -0)
(-3969.82 -110610 -0)
(-4151.4 -111091 -0)
(-4321.74 -111594 -0)
(-4479.85 -112120 -0)
(-4624.8 -112667 -0)
(-4755.9 -113233 -0)
(-4872.26 -113817 -0)
(-4972.71 -114417 -0)
(-5056.22 -115032 -0)
(-5121.78 -115658 -0)
(-5168.39 -116295 -0)
(-5195.12 -116938 -0)
(-5201.14 -117587 -0)
(-5185.72 -118238 -0)
(-5148.32 -118889 -0)
(-5088.49 -119536 -0)
(-5005.79 -120178 -0)
(-4899.83 -120810 -0)
(-4770.11 -121430 -0)
(-4616.11 -122034 -0)
(-4437.34 -122619 -0)
(-4233.47 -123182 -0)
(-4004.5 -123719 -0)
(-3750.8 -124227 -0)
(-172.232 -104018 -0)
(-498.586 -104053 -0)
(-799.274 -104121 -0)
(-1089.06 -104219 -0)
(-1373.69 -104347 -0)
(-1655.08 -104504 -0)
(-1933.65 -104691 -0)
(-2209.17 -104908 -0)
(-2481.16 -105154 -0)
(-2749.06 -105429 -0)
(-3012.19 -105733 -0)
(-3269.84 -106066 -0)
(-3521.21 -106428 -0)
(-3765.45 -106818 -0)
(-4001.65 -107236 -0)
(-4228.84 -107681 -0)
(-4445.97 -108153 -0)
(-4651.95 -108650 -0)
(-4845.64 -109172 -0)
(-5025.89 -109718 -0)
(-5191.75 -110286 -0)
(-5342.35 -110876 -0)
(-5476.46 -111484 -0)
(-5592.79 -112111 -0)
(-5690.11 -112753 -0)
(-5767.27 -113409 -0)
(-5823.1 -114075 -0)
(-5856.52 -114751 -0)
(-5866.57 -115432 -0)
(-5852.42 -116116 -0)
(-5813.45 -116801 -0)
(-5749.12 -117482 -0)
(-5658.9 -118158 -0)
(-5542.29 -118825 -0)
(-5398.66 -119480 -0)
(-5227.33 -120119 -0)
(-5027.67 -120739 -0)
(-4799.22 -121336 -0)
(-4541.88 -121906 -0)
(-4256.03 -122445 -0)
(-190.249 -101586 -0)
(-550.737 -101622 -0)
(-882.902 -101691 -0)
(-1203.13 -101791 -0)
(-1517.81 -101921 -0)
(-1829.15 -102082 -0)
(-2137.61 -102273 -0)
(-2443 -102495 -0)
(-2744.83 -102747 -0)
(-3042.46 -103029 -0)
(-3335.18 -103342 -0)
(-3622.2 -103684 -0)
(-3902.65 -104057 -0)
(-4175.59 -104459 -0)
(-4440.02 -104890 -0)
(-4694.83 -105351 -0)
(-4938.86 -105839 -0)
(-5170.88 -106355 -0)
(-5389.58 -106897 -0)
(-5593.7 -107465 -0)
(-5782.22 -108056 -0)
(-5954.02 -108671 -0)
(-6107.56 -109308 -0)
(-6241.36 -109963 -0)
(-6354 -110636 -0)
(-6444.12 -111324 -0)
(-6510.4 -112025 -0)
(-6551.57 -112735 -0)
(-6566.56 -113452 -0)
(-6554.44 -114173 -0)
(-6514.49 -114896 -0)
(-6446.1 -115616 -0)
(-6348.66 -116330 -0)
(-6221.54 -117036 -0)
(-6064.02 -117730 -0)
(-5875.22 -118408 -0)
(-5654.28 -119066 -0)
(-5400.56 -119702 -0)
(-5113.82 -120309 -0)
(-4794.39 -120885 -0)
(-208.484 -99278.7 -0)
(-603.674 -99315.3 -0)
(-968.053 -99385.3 -0)
(-1319.5 -99487.1 -0)
(-1665.05 -99620.4 -0)
(-2007.17 -99784.8 -0)
(-2346.43 -99980.6 -0)
(-2682.65 -100208 -0)
(-3015.33 -100466 -0)
(-3343.81 -100756 -0)
(-3667.32 -101077 -0)
(-3985.01 -101430 -0)
(-4295.94 -101814 -0)
(-4599.07 -102229 -0)
(-4893.29 -102675 -0)
(-5177.39 -103152 -0)
(-5450.06 -103658 -0)
(-5709.92 -104194 -0)
(-5955.52 -104758 -0)
(-6185.44 -105350 -0)
(-6398.58 -105968 -0)
(-6593.52 -106611 -0)
(-6768.36 -107277 -0)
(-6921.44 -107965 -0)
(-7051.09 -108672 -0)
(-7155.76 -109396 -0)
(-7233.9 -110134 -0)
(-7284.05 -110883 -0)
(-7305.03 -111640 -0)
(-7295.78 -112402 -0)
(-7255.49 -113166 -0)
(-7183.5 -113929 -0)
(-7079.2 -114686 -0)
(-6941.84 -115435 -0)
(-6770.55 -116173 -0)
(-6564.21 -116894 -0)
(-6321.67 -117597 -0)
(-6042.01 -118275 -0)
(-5724.78 -118925 -0)
(-5370.24 -119541 -0)
(-226.894 -97087.7 -0)
(-657.325 -97124.6 -0)
(-1054.7 -97195.6 -0)
(-1438.22 -97299.4 -0)
(-1815.53 -97435.4 -0)
(-2189.35 -97603.6 -0)
(-2560.38 -97804.1 -0)
(-2928.48 -98036.9 -0)
(-3293.14 -98302.2 -0)
(-3653.68 -98600.2 -0)
(-4009.29 -98931 -0)
(-4359.06 -99294.6 -0)
(-4701.97 -99691 -0)
(-5036.91 -100120 -0)
(-5362.65 -100582 -0)
(-5677.85 -101076 -0)
(-5981.08 -101602 -0)
(-6270.78 -102159 -0)
(-6545.34 -102747 -0)
(-6803.27 -103365 -0)
(-7043.25 -104011 -0)
(-7263.45 -104685 -0)
(-7461.73 -105384 -0)
(-7636.14 -106107 -0)
(-7784.76 -106851 -0)
(-7905.77 -107614 -0)
(-7997.41 -108393 -0)
(-8057.98 -109185 -0)
(-8086.12 -109987 -0)
(-8080.69 -110794 -0)
(-8040.82 -111605 -0)
(-7965.85 -112414 -0)
(-7855.16 -113219 -0)
(-7707.93 -114017 -0)
(-7523.09 -114803 -0)
(-7299.24 -115573 -0)
(-7034.85 -116324 -0)
(-6728.62 -117051 -0)
(-6379.81 -117748 -0)
(-5988.52 -118411 -0)
(-245.442 -95003.9 -0)
(-711.619 -95041.1 -0)
(-1142.79 -95113.1 -0)
(-1559.3 -95218.7 -0)
(-1969.32 -95357.6 -0)
(-2375.85 -95529.7 -0)
(-2779.7 -95735 -0)
(-3180.8 -95973.9 -0)
(-3578.65 -96246.4 -0)
(-3972.55 -96552.9 -0)
(-4361.67 -96893.6 -0)
(-4745.03 -97268.5 -0)
(-5121.55 -97678 -0)
(-5490.04 -98121.9 -0)
(-5849.16 -98600.3 -0)
(-6197.45 -99113.1 -0)
(-6533.33 -99659.8 -0)
(-6855.07 -100240 -0)
(-7160.89 -100853 -0)
(-7449.26 -101499 -0)
(-7718.53 -102175 -0)
(-7966.4 -102882 -0)
(-8190.5 -103617 -0)
(-8388.6 -104378 -0)
(-8558.45 -105163 -0)
(-8697.9 -105969 -0)
(-8804.91 -106793 -0)
(-8877.56 -107632 -0)
(-8914.27 -108482 -0)
(-8913.82 -109340 -0)
(-8875.32 -110202 -0)
(-8798.15 -111064 -0)
(-8681.7 -111922 -0)
(-8525.11 -112773 -0)
(-8327.09 -113613 -0)
(-8085.88 -114439 -0)
(-7799.49 -115245 -0)
(-7466.1 -116026 -0)
(-7084.58 -116777 -0)
(-6654.8 -117492 -0)
(-264.094 -93018.9 -0)
(-766.492 -93056.3 -0)
(-1232.3 -93129.1 -0)
(-1682.75 -93236.6 -0)
(-2126.49 -93378.4 -0)
(-2566.78 -93554.3 -0)
(-3004.58 -93764.7 -0)
(-3439.86 -94009.7 -0)
(-3872.17 -94289.7 -0)
(-4300.82 -94605 -0)
(-4724.92 -94955.9 -0)
(-5143.48 -95342.7 -0)
(-5555.35 -95765.7 -0)
(-5959.26 -96225.1 -0)
(-6353.77 -96720.9 -0)
(-6737.29 -97253.2 -0)
(-7108.09 -97821.8 -0)
(-7464.29 -98426.4 -0)
(-7803.94 -99066.4 -0)
(-8125.4 -99741.6 -0)
(-8426.65 -100451 -0)
(-8704.91 -101193 -0)
(-8957.55 -101966 -0)
(-9182 -102768 -0)
(-9375.63 -103597 -0)
(-9535.95 -104449 -0)
(-9660.56 -105323 -0)
(-9747.26 -106213 -0)
(-9794.26 -107117 -0)
(-9800.24 -108030 -0)
(-9764.33 -108948 -0)
(-9685.97 -109868 -0)
(-9564.62 -110786 -0)
(-9399.37 -111697 -0)
(-9188.73 -112598 -0)
(-8930.48 -113485 -0)
(-8622.05 -114353 -0)
(-8260.97 -115196 -0)
(-7845.6 -116007 -0)
(-7375.57 -116781 -0)
(-282.823 -91124.2 -0)
(-821.885 -91161.7 -0)
(-1323.16 -91235.4 -0)
(-1808.53 -91344.7 -0)
(-2287.04 -91489.2 -0)
(-2762.19 -91669.1 -0)
(-3235.09 -91884.5 -0)
(-3705.81 -92135.8 -0)
(-4173.92 -92423.4 -0)
(-4638.74 -92747.6 -0)
(-5099.4 -93109 -0)
(-5554.86 -93508 -0)
(-6003.92 -93945 -0)
(-6445.23 -94420.2 -0)
(-6877.26 -94934.1 -0)
(-7298.31 -95486.7 -0)
(-7706.48 -96078 -0)
(-8099.72 -96708 -0)
(-8476.08 -97376.3 -0)
(-8833.6 -98082.7 -0)
(-9169.71 -98826.3 -0)
(-9481.38 -99605.7 -0)
(-9765.62 -100419 -0)
(-10019.4 -101266 -0)
(-10239.8 -102141 -0)
(-10423.8 -103044 -0)
(-10568.7 -103971 -0)
(-10671.8 -104918 -0)
(-10731.2 -105880 -0)
(-10745.5 -106854 -0)
(-10713.7 -107835 -0)
(-10635.5 -108820 -0)
(-10510.5 -109803 -0)
(-10337.6 -110782 -0)
(-10115.1 -111751 -0)
(-9840.3 -112707 -0)
(-9509.92 -113644 -0)
(-9120.68 -114557 -0)
(-8670.25 -115437 -0)
(-8158.16 -116279 -0)
(-301.602 -89311.6 -0)
(-877.738 -89349.1 -0)
(-1415.32 -89423.7 -0)
(-1936.58 -89534.7 -0)
(-2450.93 -89682 -0)
(-2962.07 -89865.7 -0)
(-3471.27 -90086.1 -0)
(-3978.69 -90343.6 -0)
(-4483.98 -90638.7 -0)
(-4986.47 -90972 -0)
(-5485.3 -91344 -0)
(-5979.43 -91755.2 -0)
(-6467.6 -92206.4 -0)
(-6948.4 -92697.9 -0)
(-7420.22 -93230.2 -0)
(-7881.23 -93803.6 -0)
(-8329.41 -94418.4 -0)
(-8762.57 -95074.6 -0)
(-9178.69 -95772.4 -0)
(-9575.41 -96511.5 -0)
(-9949.64 -97291.1 -0)
(-10298.1 -98109.9 -0)
(-10617.3 -98966.7 -0)
(-10904 -99859.4 -0)
(-11154.5 -100786 -0)
(-11365.5 -101743 -0)
(-11533.7 -102727 -0)
(-11656.2 -103734 -0)
(-11730.7 -104761 -0)
(-11755.6 -105802 -0)
(-11730.1 -106852 -0)
(-11653.9 -107908 -0)
(-11526.6 -108965 -0)
(-11347.4 -110019 -0)
(-11114.3 -111066 -0)
(-10823.7 -112100 -0)
(-10471.7 -113116 -0)
(-10053.9 -114107 -0)
(-9567.28 -115066 -0)
(-9010.85 -115984 -0)
(-320.42 -87573.1 -0)
(-934.005 -87610.8 -0)
(-1508.68 -87686 -0)
(-2066.82 -87798.6 -0)
(-2618.06 -87948.5 -0)
(-3166.32 -88136 -0)
(-3713.02 -88361.2 -0)
(-4258.44 -88624.8 -0)
(-4802.29 -88927.4 -0)
(-5343.98 -89269.5 -0)
(-5882.66 -89652 -0)
(-6417.27 -90075.5 -0)
(-6946.54 -90540.9 -0)
(-7469.02 -91048.6 -0)
(-7982.99 -91599.5 -0)
(-8486.55 -92194.1 -0)
(-8977.52 -92832.8 -0)
(-9453.76 -93516 -0)
(-9912.96 -94244.2 -0)
(-10352.2 -95017 -0)
(-10768.1 -95833.9 -0)
(-11157 -96693.9 -0)
(-11515.1 -97595.8 -0)
(-11838.5 -98537.8 -0)
(-12123.1 -99517.6 -0)
(-12364.9 -100532 -0)
(-12560.2 -101578 -0)
(-12705.6 -102651 -0)
(-12798.5 -103747 -0)
(-12837 -104862 -0)
(-12820.5 -105989 -0)
(-12748.7 -107124 -0)
(-12621.6 -108264 -0)
(-12438 -109403 -0)
(-12195.7 -110536 -0)
(-11890.6 -111659 -0)
(-11517.3 -112765 -0)
(-11070.5 -113846 -0)
(-10546.5 -114893 -0)
(-9943.23 -115898 -0)
(-339.262 -85901.1 -0)
(-990.638 -85938.8 -0)
(-1603.16 -86014.7 -0)
(-2199.11 -86128.8 -0)
(-2788.27 -86281.1 -0)
(-3374.75 -86472.1 -0)
(-3960.14 -86702 -0)
(-4544.85 -86971.4 -0)
(-5128.68 -87281.1 -0)
(-5711.11 -87631.9 -0)
(-6291.31 -88024.6 -0)
(-6868.27 -88460.2 -0)
(-7440.69 -88939.4 -0)
(-8007.09 -89463.3 -0)
(-8565.7 -90032.8 -0)
(-9114.51 -90648.5 -0)
(-9651.32 -91311.3 -0)
(-10173.9 -92021.9 -0)
(-10679.7 -92780.9 -0)
(-11165.1 -93588.2 -0)
(-11626.5 -94443.5 -0)
(-12060 -95346.1 -0)
(-12461.2 -96295 -0)
(-12825.7 -97288.5 -0)
(-13148.9 -98324.6 -0)
(-13426.1 -99400.3 -0)
(-13652.9 -100512 -0)
(-13825.5 -101656 -0)
(-13940.8 -102828 -0)
(-13996.9 -104022 -0)
(-13993 -105234 -0)
(-13929 -106458 -0)
(-13804.9 -107689 -0)
(-13619.7 -108924 -0)
(-13370.4 -110156 -0)
(-13052.2 -111379 -0)
(-12658.5 -112587 -0)
(-12182.5 -113771 -0)
(-11619.5 -114920 -0)
(-10966 -116024 -0)
(-358.121 -84288.1 -0)
(-1047.59 -84325.8 -0)
(-1698.65 -84402.3 -0)
(-2333.29 -84517.7 -0)
(-2961.35 -84672.3 -0)
(-3587.12 -84866.4 -0)
(-4212.35 -85100.6 -0)
(-4837.61 -85375.5 -0)
(-5462.8 -85692 -0)
(-6087.48 -86050.9 -0)
(-6710.91 -86453.4 -0)
(-7332.08 -86900.5 -0)
(-7949.73 -87393.3 -0)
(-8562.36 -87932.9 -0)
(-9168.15 -88520.5 -0)
(-9765.05 -89157.1 -0)
(-10351 -89843.9 -0)
(-10923.4 -90582.1 -0)
(-11479.2 -91372.1 -0)
(-12014.7 -92214.2 -0)
(-12526 -93108.5 -0)
(-13008.5 -94054.7 -0)
(-13457.6 -95052 -0)
(-13868.1 -96099 -0)
(-14234.9 -97194 -0)
(-14552.7 -98334.1 -0)
(-14816.3 -99516.2 -0)
(-15021.3 -100736 -0)
(-15164.2 -101989 -0)
(-15242.8 -103271 -0)
(-15256.2 -104575 -0)
(-15204.4 -105898 -0)
(-15087.5 -107233 -0)
(-14904.3 -108575 -0)
(-14651.2 -109919 -0)
(-14322.1 -111257 -0)
(-13908.9 -112582 -0)
(-13403.6 -113884 -0)
(-12799.6 -115150 -0)
(-12091.8 -116367 -0)
(-376.985 -82726.9 -0)
(-1104.8 -82764.7 -0)
(-1795.01 -82841.6 -0)
(-2469.12 -82958.1 -0)
(-3136.99 -83114.6 -0)
(-3803.05 -83311.6 -0)
(-4469.23 -83549.6 -0)
(-5136.24 -83829.5 -0)
(-5804.13 -84152.2 -0)
(-6472.57 -84518.7 -0)
(-7140.89 -84930.3 -0)
(-7808.14 -85388.3 -0)
(-8473.12 -85893.9 -0)
(-9134.3 -86448.6 -0)
(-9789.88 -87053.7 -0)
(-10437.9 -87710.7 -0)
(-11076.3 -88421.2 -0)
(-11702.1 -89186.4 -0)
(-12311.8 -90007 -0)
(-12901.5 -90884 -0)
(-13467 -91817.6 -0)
(-14003.5 -92807.9 -0)
(-14505.6 -93854.5 -0)
(-14967.7 -94956.6 -0)
(-15384 -96112.5 -0)
(-15748.3 -97320 -0)
(-16055 -98576.1 -0)
(-16298.7 -99876.9 -0)
(-16475.6 -101218 -0)
(-16582.9 -102594 -0)
(-16619.7 -104001 -0)
(-16586.1 -105432 -0)
(-16482 -106883 -0)
(-16305.7 -108347 -0)
(-16052.9 -109818 -0)
(-15716 -111289 -0)
(-15284.9 -112749 -0)
(-14750 -114186 -0)
(-14102.6 -115586 -0)
(-13335.5 -116933 -0)
(-395.842 -81210.8 -0)
(-1162.2 -81248.5 -0)
(-1892.09 -81325.7 -0)
(-2606.36 -81443.2 -0)
(-3314.84 -81601.3 -0)
(-4022.11 -81800.6 -0)
(-4730.25 -82042 -0)
(-5440.15 -82326.2 -0)
(-6152.02 -82654.3 -0)
(-6865.65 -83027.7 -0)
(-7580.48 -83447.6 -0)
(-8295.66 -83915.5 -0)
(-9010.03 -84433 -0)
(-9722.11 -85001.8 -0)
(-10430.2 -85623.4 -0)
(-11132.6 -86300.1 -0)
(-11826.7 -87033.4 -0)
(-12509.3 -87824.8 -0)
(-13176.9 -88675.4 -0)
(-13825.3 -89586.6 -0)
(-14449.9 -90559.1 -0)
(-15045.4 -91593.5 -0)
(-15606.3 -92689.9 -0)
(-16126.1 -93847.8 -0)
(-16598.4 -95066.4 -0)
(-17016.3 -96343.7 -0)
(-17373.2 -97677.3 -0)
(-17663.3 -99063.8 -0)
(-17881.8 -100499 -0)
(-18025.8 -101978 -0)
(-18094 -103497 -0)
(-18086.3 -105049 -0)
(-18002.4 -106629 -0)
(-17839.9 -108232 -0)
(-17593.2 -109849 -0)
(-17252.6 -111471 -0)
(-16805.9 -113087 -0)
(-16241.1 -114681 -0)
(-15546.8 -116236 -0)
(-14714.2 -117733 -0)
(-414.678 -79733.1 -0)
(-1219.72 -79770.8 -0)
(-1989.68 -79848.2 -0)
(-2744.69 -79966.3 -0)
(-3494.48 -80125.6 -0)
(-4243.74 -80326.8 -0)
(-4994.76 -80570.8 -0)
(-5748.59 -80858.6 -0)
(-6505.63 -81191.4 -0)
(-7265.8 -81570.6 -0)
(-8028.7 -81997.7 -0)
(-8793.58 -82474.5 -0)
(-9559.38 -83002.7 -0)
(-10324.7 -83584.3 -0)
(-11088.2 -84221.5 -0)
(-11847.9 -84916.6 -0)
(-12600.9 -85671.3 -0)
(-13344.1 -86487.5 -0)
(-14073.6 -87366.9 -0)
(-14785.2 -88311.2 -0)
(-15473.9 -89321.6 -0)
(-16134.2 -90399.3 -0)
(-16759.9 -91545.1 -0)
(-17344.2 -92759.2 -0)
(-17879.9 -94041.3 -0)
(-18359.3 -95390.3 -0)
(-18775 -96804.5 -0)
(-19120.4 -98281 -0)
(-19390.1 -99816.5 -0)
(-19580.6 -101407 -0)
(-19690.3 -103048 -0)
(-19718.7 -104734 -0)
(-19664.8 -106460 -0)
(-19525.3 -108219 -0)
(-19292.4 -110003 -0)
(-18953.9 -111800 -0)
(-18494.7 -113596 -0)
(-17899.6 -115373 -0)
(-17154.1 -117108 -0)
(-16248 -118777 -0)
(-433.472 -78287.8 -0)
(-1277.24 -78325.3 -0)
(-2087.57 -78402.8 -0)
(-2883.76 -78521.2 -0)
(-3675.41 -78681.2 -0)
(-4467.34 -78883.8 -0)
(-5262.02 -79129.7 -0)
(-6060.71 -79420.2 -0)
(-6863.98 -79756.6 -0)
(-7671.95 -80140.5 -0)
(-8484.37 -80573.6 -0)
(-9300.64 -81057.9 -0)
(-10119.8 -81595.3 -0)
(-10941 -82188.5 -0)
(-11762.6 -82839.9 -0)
(-12582.4 -83551.6 -0)
(-13397.6 -84325.9 -0)
(-14204.9 -85165.2 -0)
(-15000.5 -86071.4 -0)
(-15779.9 -87046.9 -0)
(-16538 -88093.5 -0)
(-17269 -89213.1 -0)
(-17966.2 -90407.1 -0)
(-18622.3 -91676.7 -0)
(-19229.5 -93022.4 -0)
(-19779.4 -94444.2 -0)
(-20263.9 -95941.1 -0)
(-20675.3 -97511.6 -0)
(-21007.7 -99153.3 -0)
(-21256.9 -100863 -0)
(-21420.8 -102637 -0)
(-21498.4 -104471 -0)
(-21487.6 -106360 -0)
(-21383.1 -108298 -0)
(-21174.5 -110273 -0)
(-20845.8 -112273 -0)
(-20378.5 -114279 -0)
(-19753 -116268 -0)
(-18950.8 -118213 -0)
(-17961 -120082 -0)
(-452.195 -76869 -0)
(-1334.67 -76906.4 -0)
(-2185.5 -76983.6 -0)
(-3023.15 -77102 -0)
(-3857.07 -77262.3 -0)
(-4692.19 -77465.4 -0)
(-5531.17 -77712.5 -0)
(-6375.49 -78004.7 -0)
(-7225.94 -78343.6 -0)
(-8082.83 -78730.9 -0)
(-8946.1 -79168.6 -0)
(-9815.32 -79658.8 -0)
(-10690 -80204.1 -0)
(-11569.3 -80807.3 -0)
(-12451.3 -81470.7 -0)
(-13334 -82196.9 -0)
(-14214.5 -82988.6 -0)
(-15089.6 -83848.4 -0)
(-15955.3 -84779 -0)
(-16807.3 -85783.1 -0)
(-17640.1 -86863.4 -0)
(-18447.8 -88022.4 -0)
(-19223.5 -89262.5 -0)
(-19959.5 -90585.9 -0)
(-20647.3 -91994.2 -0)
(-21278 -93488.7 -0)
(-21842.5 -95069.8 -0)
(-22332.6 -96737.3 -0)
(-22741.4 -98490.3 -0)
(-23064.3 -100327 -0)
(-23298.5 -102246 -0)
(-23442 -104243 -0)
(-23491.2 -106315 -0)
(-23438 -108455 -0)
(-23267.8 -110650 -0)
(-22959.8 -112885 -0)
(-22490.1 -115137 -0)
(-21833.6 -117375 -0)
(-20967.9 -119565 -0)
(-19881.5 -121668 -0)
(-470.812 -75471.4 -0)
(-1391.84 -75508.5 -0)
(-2283.19 -75585.3 -0)
(-3162.42 -75703.3 -0)
(-4038.84 -75863.2 -0)
(-4917.5 -76066.2 -0)
(-5801.26 -76313.5 -0)
(-6691.83 -76606.3 -0)
(-7590.23 -76946.5 -0)
(-8497 -77335.9 -0)
(-9412.3 -77776.6 -0)
(-10336.2 -78271.2 -0)
(-11268.3 -78822.7 -0)
(-12207.5 -79433.6 -0)
(-13152.2 -80106.7 -0)
(-14100.3 -80844.8 -0)
(-15049 -81651 -0)
(-15995.3 -82528.3 -0)
(-16935.2 -83480 -0)
(-17864.3 -84509.3 -0)
(-18777.3 -85619.7 -0)
(-19668.1 -86814.7 -0)
(-20529.7 -88097.6 -0)
(-21354 -89471.9 -0)
(-22132.3 -90940.6 -0)
(-22855 -92506.4 -0)
(-23512.5 -94171.7 -0)
(-24095.9 -95938.1 -0)
(-24597.7 -97806.7 -0)
(-25012.5 -99778.3 -0)
(-25337 -101853 -0)
(-25567.7 -104030 -0)
(-25698.8 -106306 -0)
(-25718 -108674 -0)
(-25605.1 -111123 -0)
(-25332.5 -113632 -0)
(-24868.8 -116172 -0)
(-24181.2 -118704 -0)
(-23243.2 -121182 -0)
(-22043.6 -123559 -0)
(-489.279 -74089.9 -0)
(-1448.61 -74126.6 -0)
(-2380.3 -74202.8 -0)
(-3301.06 -74319.9 -0)
(-4220.04 -74478.9 -0)
(-5142.41 -74681 -0)
(-6071.25 -74927.4 -0)
(-7008.52 -75219.8 -0)
(-7955.48 -75559.9 -0)
(-8912.93 -75949.8 -0)
(-9881.46 -76391.9 -0)
(-10861.4 -76889.4 -0)
(-11852.4 -77444.8 -0)
(-12853.3 -78061 -0)
(-13862.6 -78741 -0)
(-14878.3 -79488 -0)
(-15898 -80305.3 -0)
(-16918.5 -81196.4 -0)
(-17936.3 -82165 -0)
(-18947 -83215.3 -0)
(-19945.5 -84351.3 -0)
(-20925.7 -85577.6 -0)
(-21880.8 -86898.8 -0)
(-22802.5 -88319.6 -0)
(-23681.9 -89844.8 -0)
(-24509.1 -91479.1 -0)
(-25274.1 -93226.8 -0)
(-25967.6 -95092.1 -0)
(-26581.7 -97079.1 -0)
(-27110.5 -99191.6 -0)
(-27549.9 -101433 -0)
(-27894.8 -103805 -0)
(-28135.9 -106308 -0)
(-28255.5 -108937 -0)
(-28225.2 -111678 -0)
(-28008.3 -114506 -0)
(-27562.1 -117385 -0)
(-26844 -120265 -0)
(-25823.1 -123086 -0)
(-24488.7 -125787 -0)
(-507.541 -72719.9 -0)
(-1504.78 -72756.2 -0)
(-2476.49 -72831.4 -0)
(-3438.53 -72947.2 -0)
(-4399.94 -73104.7 -0)
(-5366.01 -73305 -0)
(-6340.05 -73549.6 -0)
(-7324.28 -73840.2 -0)
(-8320.21 -74178.8 -0)
(-9329.06 -74567.7 -0)
(-10351.9 -75009.7 -0)
(-11389 -75507.8 -0)
(-12439.9 -76064.8 -0)
(-13503.8 -76683.5 -0)
(-14579.3 -77367.4 -0)
(-15664.6 -78119.7 -0)
(-16757.4 -78944 -0)
(-17855 -79844.5 -0)
(-18954.1 -80825.3 -0)
(-20050.6 -81891.2 -0)
(-21139.6 -83047.3 -0)
(-22215.6 -84299.1 -0)
(-23271.7 -85652.5 -0)
(-24300 -87113.9 -0)
(-25291.7 -88689.9 -0)
(-26236.9 -90387.5 -0)
(-27125.6 -92213.6 -0)
(-27948.3 -94175.7 -0)
(-28697.1 -96281.5 -0)
(-29366.2 -98538.9 -0)
(-29950.6 -100956 -0)
(-30443.3 -103540 -0)
(-30830.6 -106294 -0)
(-31087.2 -109216 -0)
(-31173.7 -112293 -0)
(-31039.9 -115495 -0)
(-30627.8 -118776 -0)
(-29882 -122071 -0)
(-28765.4 -125303 -0)
(-27268.2 -128391 -0)
(-525.536 -71357.4 -0)
(-1560.15 -71393 -0)
(-2571.37 -71467.1 -0)
(-3574.27 -71581 -0)
(-4577.79 -71736.2 -0)
(-5587.35 -71933.9 -0)
(-6606.5 -72175.6 -0)
(-7637.74 -72463.2 -0)
(-8682.92 -72798.8 -0)
(-9743.83 -73185.2 -0)
(-10821.6 -73625.3 -0)
(-11916.5 -74121.8 -0)
(-13028.1 -74677.6 -0)
(-14155.9 -75295.8 -0)
(-15298.7 -75979.9 -0)
(-16455 -76733.4 -0)
(-17622.8 -77560.3 -0)
(-18799.8 -78465 -0)
(-19983 -79452.4 -0)
(-21169 -80527.8 -0)
(-22353.4 -81697.2 -0)
(-23531 -82967.3 -0)
(-24695.6 -84345.4 -0)
(-25839.9 -85839.5 -0)
(-26955.4 -87458.5 -0)
(-28032.7 -89211.7 -0)
(-29062.4 -91109.5 -0)
(-30035.6 -93163.1 -0)
(-30944.9 -95384.8 -0)
(-31785 -97788.1 -0)
(-32550.8 -100387 -0)
(-33233 -103197 -0)
(-33812.5 -106226 -0)
(-34253.9 -109478 -0)
(-34503.5 -112939 -0)
(-34491.3 -116579 -0)
(-34138 -120338 -0)
(-33371 -124134 -0)
(-32143.8 -127865 -0)
(-30446.8 -131423 -0)
(-543.191 -69998.6 -0)
(-1614.48 -70033.5 -0)
(-2664.52 -70106 -0)
(-3707.68 -70217.6 -0)
(-4752.78 -70369.8 -0)
(-5805.42 -70564 -0)
(-6869.39 -70801.7 -0)
(-7947.48 -71085 -0)
(-9042.22 -71416.3 -0)
(-10155.5 -71798.7 -0)
(-11288.4 -72234.6 -0)
(-12441.3 -72727 -0)
(-13614 -73278.7 -0)
(-14806.1 -73893 -0)
(-16016.8 -74573.4 -0)
(-17245 -75323.6 -0)
(-18489 -76148 -0)
(-19747.1 -77051.2 -0)
(-21016.8 -78038.6 -0)
(-22295.3 -79116.3 -0)
(-23579.1 -80291.2 -0)
(-24863.8 -81571 -0)
(-26143.9 -82964.6 -0)
(-27413.1 -84481.6 -0)
(-28663.9 -86133.1 -0)
(-29887.9 -87931.5 -0)
(-31077 -89890.8 -0)
(-32223.6 -92026.5 -0)
(-33322.2 -94356.9 -0)
(-34368.9 -96902.3 -0)
(-35359.1 -99685.7 -0)
(-36281.9 -102730 -0)
(-37111.6 -106056 -0)
(-37800.3 -109673 -0)
(-38275.2 -113575 -0)
(-38439.1 -117727 -0)
(-38182.8 -122059 -0)
(-37409 -126466 -0)
(-36054.8 -130813 -0)
(-34108.6 -134950 -0)
(-560.428 -68640.4 -0)
(-1667.53 -68674.3 -0)
(-2755.52 -68744.9 -0)
(-3838.13 -68853.7 -0)
(-4924.12 -69002.2 -0)
(-6019.24 -69191.9 -0)
(-7127.55 -69424.6 -0)
(-8252.36 -69702.4 -0)
(-9396.59 -70028.2 -0)
(-10562.1 -70404.5 -0)
(-11749.9 -70834 -0)
(-12960.5 -71319.6 -0)
(-14194.2 -71864.1 -0)
(-15450.6 -72470.8 -0)
(-16729.3 -73143.1 -0)
(-18029.5 -73885.1 -0)
(-19350.3 -74701.3 -0)
(-20690.4 -75596.6 -0)
(-22048.2 -76577 -0)
(-23421.6 -77649.1 -0)
(-24808.1 -78820.5 -0)
(-26204.3 -80100.1 -0)
(-27606.1 -81498.1 -0)
(-29008.5 -83025.9 -0)
(-30405.4 -84697 -0)
(-31790.4 -86526.8 -0)
(-33157.4 -88533 -0)
(-34501.7 -90736.7 -0)
(-35820.7 -93162.6 -0)
(-37113.9 -95839.8 -0)
(-38378.7 -98801.8 -0)
(-39603.4 -102085 -0)
(-40755.7 -105722 -0)
(-41773.2 -109739 -0)
(-42557.3 -114138 -0)
(-42975 -118887 -0)
(-42876.3 -123907 -0)
(-42125 -129069 -0)
(-40628.5 -134192 -0)
(-38366.5 -139061 -0)
(-577.163 -67279.9 -0)
(-1719.03 -67312.8 -0)
(-2843.93 -67381.2 -0)
(-3965.01 -67486.6 -0)
(-5090.99 -67630.7 -0)
(-6227.82 -67815.1 -0)
(-7379.86 -68041.6 -0)
(-8551.03 -68312.8 -0)
(-9744.31 -68631.4 -0)
(-10961.4 -68999.8 -0)
(-12203.5 -69420.5 -0)
(-13471.3 -69896.4 -0)
(-14765.1 -70430.2 -0)
(-16085.2 -71025.3 -0)
(-17431.2 -71685.1 -0)
(-18803.1 -72413.6 -0)
(-20200.5 -73215.5 -0)
(-21622.8 -74096.2 -0)
(-23069.3 -75061.7 -0)
(-24538.9 -76119.4 -0)
(-26030.2 -77277.4 -0)
(-27541.3 -78545.5 -0)
(-29069.7 -79935.2 -0)
(-30612.1 -81459.6 -0)
(-32164.8 -83134.4 -0)
(-33724 -84978 -0)
(-35287 -87012.3 -0)
(-36853.2 -89263.8 -0)
(-38425.2 -91764.8 -0)
(-40008.1 -94554.4 -0)
(-41603.9 -97679.3 -0)
(-43202.3 -101192 -0)
(-44765.7 -105145 -0)
(-46216.1 -109585 -0)
(-47423.6 -114535 -0)
(-48208.5 -119974 -0)
(-48365 -125825 -0)
(-47693.9 -131934 -0)
(-46046.9 -138057 -0)
(-43378.1 -143879 -0)
(-593.309 -65915.1 -0)
(-1768.73 -65946.7 -0)
(-2929.31 -66012.4 -0)