/*--------------------------------*- C++ -*----------------------------------*\
  =========                 |
  \\      /  F ield         | OpenFOAM: The Open Source CFD Toolbox
   \\    /   O peration     | Website:  https://openfoam.org
    \\  /    A nd           | Version:  6
     \\/     M anipulation  |
\*---------------------------------------------------------------------------*/
FoamFile
{
    version     2.0;
    format      ascii;
    class       volVectorField;
    location    "30";
    object      force;
}
// * * * * * * * * * * * * * * * * * * * * * * * * * * * * * * * * * * * * * //

dimensions      [0 1 -2 0 0 0 0];

internalField   nonuniform List<vector> 
8800
(
(-3.15726e-06 -0.0477883 -0)
(-8.66854e-06 -0.0479102 -0)
(-1.31784e-05 -0.0479775 -0)
(-1.74672e-05 -0.0480245 -0)
(-2.17141e-05 -0.0480639 -0)
(-2.59542e-05 -0.0481028 -0)
(-3.01754e-05 -0.0481452 -0)
(-3.43532e-05 -0.0481929 -0)
(-3.84639e-05 -0.0482463 -0)
(-4.24895e-05 -0.0483052 -0)
(-4.64151e-05 -0.0483696 -0)
(-5.02263e-05 -0.0484392 -0)
(-5.39092e-05 -0.0485138 -0)
(-5.74498e-05 -0.0485931 -0)
(-6.08334e-05 -0.0486768 -0)
(-6.40452e-05 -0.0487648 -0)
(-6.70699e-05 -0.0488566 -0)
(-6.98916e-05 -0.0489519 -0)
(-7.24934e-05 -0.0490504 -0)
(-7.48574e-05 -0.0491517 -0)
(-7.69651e-05 -0.0492553 -0)
(-7.88006e-05 -0.0493602 -0)
(-8.03574e-05 -0.0494652 -0)
(-8.16283e-05 -0.0495709 -0)
(-8.25938e-05 -0.0496764 -0)
(-8.32354e-05 -0.0497808 -0)
(-8.35354e-05 -0.0498832 -0)
(-8.34797e-05 -0.0499819 -0)
(-8.30595e-05 -0.0500754 -0)
(-8.22732e-05 -0.0501624 -0)
(-8.11278e-05 -0.0502413 -0)
(-7.96363e-05 -0.050312 -0)
(-7.78141e-05 -0.0503744 -0)
(-7.56784e-05 -0.0504293 -0)
(-7.32379e-05 -0.0504788 -0)
(-7.04954e-05 -0.050524 -0)
(-6.74461e-05 -0.0505674 -0)
(-6.40759e-05 -0.0506092 -0)
(-6.03796e-05 -0.0506494 -0)
(-5.63578e-05 -0.0506878 -0)
(-8.14346e-06 -0.0438502 -0)
(-2.3283e-05 -0.0439485 -0)
(-3.66979e-05 -0.0440172 -0)
(-4.93615e-05 -0.0440628 -0)
(-6.17497e-05 -0.0441008 -0)
(-7.40022e-05 -0.0441394 -0)
(-8.61275e-05 -0.0441819 -0)
(-9.80923e-05 -0.0442294 -0)
(-0.000109854 -0.0442823 -0)
(-0.00012137 -0.0443406 -0)
(-0.000132601 -0.0444042 -0)
(-0.000143506 -0.0444729 -0)
(-0.000154048 -0.0445465 -0)
(-0.000164185 -0.0446247 -0)
(-0.000173875 -0.0447073 -0)
(-0.000183077 -0.044794 -0)
(-0.000191747 -0.0448845 -0)
(-0.000199838 -0.0449783 -0)
(-0.000207304 -0.0450753 -0)
(-0.000214095 -0.0451751 -0)
(-0.00022016 -0.0452769 -0)
(-0.000225454 -0.04538 -0)
(-0.000229951 -0.0454824 -0)
(-0.00023363 -0.045585 -0)
(-0.000236444 -0.0456872 -0)
(-0.000238345 -0.0457883 -0)
(-0.000239286 -0.0458873 -0)
(-0.000239231 -0.0459826 -0)
(-0.000238154 -0.0460731 -0)
(-0.000236046 -0.0461573 -0)
(-0.000232914 -0.046234 -0)
(-0.000228783 -0.046303 -0)
(-0.000223683 -0.046364 -0)
(-0.000217647 -0.0464185 -0)
(-0.000210695 -0.0464676 -0)
(-0.000202834 -0.0465129 -0)
(-0.00019406 -0.0465565 -0)
(-0.00018435 -0.0465985 -0)
(-0.000173698 -0.046639 -0)
(-0.000162111 -0.0466777 -0)
(-1.24303e-05 -0.0401405 -0)
(-3.5919e-05 -0.0402476 -0)
(-5.72677e-05 -0.0403131 -0)
(-7.75723e-05 -0.0403589 -0)
(-9.73764e-05 -0.0403974 -0)
(-0.000116888 -0.0404359 -0)
(-0.000136148 -0.0404779 -0)
(-0.000155127 -0.0405247 -0)
(-0.000173772 -0.0405769 -0)
(-0.000192024 -0.0406343 -0)
(-0.000209826 -0.0406968 -0)
(-0.000227116 -0.0407643 -0)
(-0.000243832 -0.0408365 -0)
(-0.000259913 -0.0409132 -0)
(-0.000275291 -0.0409941 -0)
(-0.0002899 -0.0410788 -0)
(-0.00030367 -0.0411672 -0)
(-0.000316528 -0.0412587 -0)
(-0.000328401 -0.0413533 -0)
(-0.000339209 -0.0414503 -0)
(-0.000348876 -0.0415493 -0)
(-0.000357329 -0.041649 -0)
(-0.000364515 -0.0417468 -0)
(-0.000370413 -0.0418448 -0)
(-0.000374947 -0.0419422 -0)
(-0.000378047 -0.0420382 -0)
(-0.000379646 -0.0421322 -0)
(-0.000379685 -0.0422227 -0)
(-0.000378123 -0.0423087 -0)
(-0.00037494 -0.0423889 -0)
(-0.000370137 -0.0424622 -0)
(-0.000363741 -0.0425285 -0)
(-0.000355784 -0.0425875 -0)
(-0.000346308 -0.0426407 -0)
(-0.000335337 -0.0426893 -0)
(-0.000322885 -0.0427346 -0)
(-0.000308945 -0.0427785 -0)
(-0.000293499 -0.042821 -0)
(-0.000276544 -0.042862 -0)
(-0.0002581 -0.0429013 -0)
(-1.62019e-05 -0.0366715 -0)
(-4.70193e-05 -0.0367995 -0)
(-7.5323e-05 -0.0368677 -0)
(-0.000102391 -0.0369124 -0)
(-0.000128808 -0.0369496 -0)
(-0.000154804 -0.0369869 -0)
(-0.000180434 -0.0370279 -0)
(-0.000205669 -0.0370737 -0)
(-0.000230452 -0.0371247 -0)
(-0.000254713 -0.0371808 -0)
(-0.000278377 -0.0372418 -0)
(-0.000301366 -0.0373075 -0)
(-0.000323601 -0.0373777 -0)
(-0.000344998 -0.0374521 -0)
(-0.000365468 -0.0375304 -0)
(-0.000384924 -0.0376124 -0)
(-0.00040327 -0.0376976 -0)
(-0.000420411 -0.0377858 -0)
(-0.000436249 -0.0378766 -0)
(-0.000450681 -0.0379697 -0)
(-0.000463604 -0.0380643 -0)
(-0.000474916 -0.0381587 -0)
(-0.000484551 -0.0382507 -0)
(-0.000492478 -0.0383424 -0)
(-0.000498601 -0.0384334 -0)
(-0.000502832 -0.0385229 -0)
(-0.000505086 -0.0386104 -0)
(-0.000505287 -0.0386948 -0)
(-0.00050338 -0.0387751 -0)
(-0.00049933 -0.0388502 -0)
(-0.000493129 -0.0389191 -0)
(-0.0004848 -0.0389819 -0)
(-0.000474371 -0.0390382 -0)
(-0.000461887 -0.0390895 -0)
(-0.000447376 -0.0391369 -0)
(-0.00043085 -0.0391817 -0)
(-0.000412312 -0.0392256 -0)
(-0.000391742 -0.0392685 -0)
(-0.000369145 -0.0393102 -0)
(-0.000344553 -0.03935 -0)
(-1.94984e-05 -0.0334441 -0)
(-5.67325e-05 -0.0335935 -0)
(-9.11094e-05 -0.0336677 -0)
(-0.000124086 -0.0337127 -0)
(-0.000156301 -0.0337488 -0)
(-0.000188 -0.0337848 -0)
(-0.00021924 -0.0338244 -0)
(-0.000249992 -0.0338687 -0)
(-0.000280192 -0.033918 -0)
(-0.000309758 -0.0339722 -0)
(-0.000338603 -0.034031 -0)
(-0.000366636 -0.0340943 -0)
(-0.000393758 -0.0341617 -0)
(-0.000419868 -0.034233 -0)
(-0.000444859 -0.0343079 -0)
(-0.000468622 -0.034386 -0)
(-0.000491041 -0.034467 -0)
(-0.000511999 -0.0345506 -0)
(-0.000531376 -0.0346364 -0)
(-0.000549048 -0.0347241 -0)
(-0.000564886 -0.0348129 -0)
(-0.000578763 -0.0349003 -0)
(-0.000590605 -0.034985 -0)
(-0.000600367 -0.0350692 -0)
(-0.000607939 -0.0351524 -0)
(-0.000613218 -0.0352341 -0)
(-0.000616104 -0.035314 -0)
(-0.000616509 -0.0353911 -0)
(-0.000614362 -0.0354647 -0)
(-0.000609615 -0.0355338 -0)
(-0.000602249 -0.0355975 -0)
(-0.000592279 -0.0356559 -0)
(-0.000579726 -0.0357087 -0)
(-0.000564638 -0.0357573 -0)
(-0.000547039 -0.0358029 -0)
(-0.000526945 -0.0358465 -0)
(-0.000504363 -0.0358898 -0)
(-0.000479275 -0.0359327 -0)
(-0.00045169 -0.0359746 -0)
(-0.000421656 -0.0360149 -0)
(-2.23576e-05 -0.030449 -0)
(-6.51686e-05 -0.0306221 -0)
(-0.000104797 -0.030704 -0)
(-0.000142874 -0.0307504 -0)
(-0.000180102 -0.0307857 -0)
(-0.000216744 -0.0308202 -0)
(-0.000252858 -0.030858 -0)
(-0.000288412 -0.0309003 -0)
(-0.000323333 -0.0309473 -0)
(-0.000357531 -0.0309989 -0)
(-0.000390906 -0.0310549 -0)
(-0.000423353 -0.0311149 -0)
(-0.00045476 -0.0311787 -0)
(-0.000485007 -0.031246 -0)
(-0.000513971 -0.0313164 -0)
(-0.000541523 -0.0313897 -0)
(-0.00056753 -0.0314654 -0)
(-0.000591854 -0.0315432 -0)
(-0.000614356 -0.0316228 -0)
(-0.000634892 -0.0317038 -0)
(-0.000653312 -0.0317854 -0)
(-0.000669455 -0.0318642 -0)
(-0.000683258 -0.0319405 -0)
(-0.000694654 -0.032016 -0)
(-0.000703521 -0.0320903 -0)
(-0.000709745 -0.0321632 -0)
(-0.000713219 -0.0322345 -0)
(-0.000713838 -0.0323035 -0)
(-0.000711524 -0.0323696 -0)
(-0.000706215 -0.0324319 -0)
(-0.000697876 -0.0324896 -0)
(-0.00068652 -0.0325428 -0)
(-0.000672156 -0.0325913 -0)
(-0.000654832 -0.0326364 -0)
(-0.000634574 -0.0326793 -0)
(-0.000611394 -0.032721 -0)
(-0.000585306 -0.0327631 -0)
(-0.00055629 -0.0328054 -0)
(-0.000524358 -0.0328469 -0)
(-0.000489569 -0.0328873 -0)
(-2.48055e-05 -0.0276758 -0)
(-7.24102e-05 -0.0278756 -0)
(-0.000116526 -0.0279664 -0)
(-0.000158948 -0.0280148 -0)
(-0.000200449 -0.0280495 -0)
(-0.000241312 -0.0280824 -0)
(-0.000281599 -0.028118 -0)
(-0.000321272 -0.0281577 -0)
(-0.000360253 -0.0282018 -0)
(-0.00039844 -0.0282502 -0)
(-0.000435725 -0.0283025 -0)
(-0.000471988 -0.0283584 -0)
(-0.000507103 -0.0284178 -0)
(-0.000540936 -0.0284801 -0)
(-0.000573348 -0.0285451 -0)
(-0.000604194 -0.0286125 -0)
(-0.000633321 -0.0286818 -0)
(-0.000660575 -0.0287528 -0)
(-0.000685798 -0.0288252 -0)
(-0.000708829 -0.0288984 -0)
(-0.000729496 -0.0289715 -0)
(-0.000747602 -0.0290404 -0)
(-0.000763115 -0.0291074 -0)
(-0.000775935 -0.0291733 -0)
(-0.000785929 -0.0292379 -0)
(-0.000792977 -0.0293012 -0)
(-0.000796966 -0.0293632 -0)
(-0.000797783 -0.0294233 -0)
(-0.000795339 -0.0294811 -0)
(-0.000789564 -0.029536 -0)
(-0.000780408 -0.0295868 -0)
(-0.000767881 -0.0296342 -0)
(-0.00075198 -0.0296774 -0)
(-0.000732758 -0.0297182 -0)
(-0.000710238 -0.0297577 -0)
(-0.000684429 -0.0297966 -0)
(-0.000655351 -0.0298367 -0)
(-0.000622979 -0.0298776 -0)
(-0.000587322 -0.0299183 -0)
(-0.000548447 -0.0299581 -0)
(-2.68583e-05 -0.025114 -0)
(-7.85192e-05 -0.0253425 -0)
(-0.000126415 -0.0254433 -0)
(-0.000172486 -0.0254942 -0)
(-0.000217572 -0.0255283 -0)
(-0.000261981 -0.0255593 -0)
(-0.00030578 -0.0255923 -0)
(-0.000348931 -0.025629 -0)
(-0.000391345 -0.0256695 -0)
(-0.000432915 -0.0257139 -0)
(-0.00047352 -0.0257618 -0)
(-0.00051303 -0.025813 -0)
(-0.000551306 -0.025867 -0)
(-0.000588199 -0.0259235 -0)
(-0.000623558 -0.0259823 -0)
(-0.000657218 -0.0260429 -0)
(-0.000689015 -0.026105 -0)
(-0.000718777 -0.0261683 -0)
(-0.000746329 -0.0262325 -0)
(-0.000771492 -0.026297 -0)
(-0.000794073 -0.0263605 -0)
(-0.000813834 -0.0264186 -0)
(-0.0008308 -0.0264756 -0)
(-0.000844821 -0.0265313 -0)
(-0.000855759 -0.0265856 -0)
(-0.000863488 -0.0266387 -0)
(-0.000867896 -0.0266909 -0)
(-0.000868861 -0.0267415 -0)
(-0.000866291 -0.0267905 -0)
(-0.000860109 -0.0268372 -0)
(-0.00085025 -0.0268804 -0)
(-0.000836729 -0.026921 -0)
(-0.000819527 -0.0269581 -0)
(-0.000798708 -0.0269937 -0)
(-0.000774292 -0.0270287 -0)
(-0.000746282 -0.027064 -0)
(-0.000714707 -0.0271015 -0)
(-0.000679528 -0.0271403 -0)
(-0.000640749 -0.0271794 -0)
(-0.000598436 -0.0272179 -0)
(-2.85284e-05 -0.0227527 -0)
(-8.3548e-05 -0.0230106 -0)
(-0.000134574 -0.0231221 -0)
(-0.000183655 -0.0231757 -0)
(-0.000231693 -0.0232093 -0)
(-0.000279024 -0.0232382 -0)
(-0.000325722 -0.0232683 -0)
(-0.000371748 -0.0233014 -0)
(-0.000417009 -0.0233379 -0)
(-0.00046139 -0.0233777 -0)
(-0.00050476 -0.0234205 -0)
(-0.000546978 -0.0234661 -0)
(-0.000587893 -0.0235141 -0)
(-0.000627346 -0.0235642 -0)
(-0.00066517 -0.0236159 -0)
(-0.000701189 -0.0236691 -0)
(-0.000735222 -0.0237233 -0)
(-0.000767082 -0.0237783 -0)
(-0.000796579 -0.0238336 -0)
(-0.000823519 -0.0238887 -0)
(-0.000847682 -0.023942 -0)
(-0.000868788 -0.0239886 -0)
(-0.000886944 -0.0240351 -0)
(-0.000901936 -0.0240802 -0)
(-0.00091362 -0.024124 -0)
(-0.000921868 -0.0241665 -0)
(-0.000926573 -0.0242084 -0)
(-0.000927607 -0.0242491 -0)
(-0.000924878 -0.0242885 -0)
(-0.000918305 -0.0243263 -0)
(-0.000907812 -0.024361 -0)
(-0.000893428 -0.0243938 -0)
(-0.000875118 -0.0244238 -0)
(-0.000852961 -0.024453 -0)
(-0.000826981 -0.0244828 -0)
(-0.000797172 -0.0245136 -0)
(-0.000763565 -0.0245475 -0)
(-0.000726107 -0.0245836 -0)
(-0.00068479 -0.0246205 -0)
(-0.000639669 -0.024657 -0)
(-2.98289e-05 -0.0205806 -0)
(-8.75464e-05 -0.0208676 -0)
(-0.000141105 -0.0209898 -0)
(-0.000192613 -0.0210463 -0)
(-0.000243026 -0.0210793 -0)
(-0.000292705 -0.021106 -0)
(-0.000341736 -0.0211328 -0)
(-0.000390079 -0.0211619 -0)
(-0.000437639 -0.0211938 -0)
(-0.000484294 -0.0212285 -0)
(-0.000529905 -0.0212658 -0)
(-0.000574322 -0.0213053 -0)
(-0.000617384 -0.0213467 -0)
(-0.00065892 -0.0213897 -0)
(-0.000698752 -0.021434 -0)
(-0.000736691 -0.0214792 -0)
(-0.000772542 -0.0215251 -0)
(-0.000806105 -0.0215712 -0)
(-0.000837176 -0.0216172 -0)
(-0.000865542 -0.0216625 -0)
(-0.000890953 -0.0217049 -0)
(-0.000913105 -0.0217401 -0)
(-0.000932182 -0.021776 -0)
(-0.000947907 -0.0218104 -0)
(-0.000960128 -0.0218434 -0)
(-0.000968716 -0.0218752 -0)
(-0.000973573 -0.0219065 -0)
(-0.000974566 -0.0219368 -0)
(-0.000971604 -0.021966 -0)
(-0.000964615 -0.021994 -0)
(-0.000953507 -0.0220191 -0)
(-0.000938336 -0.022043 -0)
(-0.000919059 -0.0220645 -0)
(-0.000895777 -0.0220862 -0)
(-0.000868522 -0.0221094 -0)
(-0.000837296 -0.0221352 -0)
(-0.000802091 -0.0221646 -0)
(-0.000762853 -0.0221969 -0)
(-0.000719561 -0.0222309 -0)
(-0.000672239 -0.0222645 -0)
(-3.07745e-05 -0.018586 -0)
(-9.05654e-05 -0.0189007 -0)
(-0.000146107 -0.0190333 -0)
(-0.000199514 -0.0190927 -0)
(-0.000251775 -0.0191251 -0)
(-0.000303278 -0.0191494 -0)
(-0.000354119 -0.0191727 -0)
(-0.000404264 -0.0191975 -0)
(-0.000453613 -0.0192245 -0)
(-0.000502041 -0.0192537 -0)
(-0.000549403 -0.0192849 -0)
(-0.000595539 -0.019318 -0)
(-0.000640281 -0.0193524 -0)
(-0.000683448 -0.019388 -0)
(-0.000724851 -0.0194245 -0)
(-0.00076429 -0.0194615 -0)
(-0.000801559 -0.0194988 -0)
(-0.000836445 -0.0195359 -0)
(-0.000868728 -0.0195725 -0)
(-0.000898171 -0.0196076 -0)
(-0.00092441 -0.0196368 -0)
(-0.000947419 -0.0196628 -0)
(-0.000967149 -0.0196883 -0)
(-0.000983366 -0.0197122 -0)
(-0.000995908 -0.0197345 -0)
(-0.00100464 -0.0197554 -0)
(-0.00100948 -0.0197759 -0)
(-0.0010103 -0.0197954 -0)
(-0.00100699 -0.0198138 -0)
(-0.000999509 -0.019831 -0)
(-0.000987745 -0.0198452 -0)
(-0.000971802 -0.0198586 -0)
(-0.000951653 -0.0198706 -0)
(-0.00092741 -0.0198834 -0)
(-0.000899115 -0.0198987 -0)
(-0.000866801 -0.0199182 -0)
(-0.000830382 -0.0199416 -0)
(-0.000789827 -0.0199688 -0)
(-0.000745085 -0.0199984 -0)
(-0.000696154 -0.0200282 -0)
(-3.13833e-05 -0.0167575 -0)
(-9.26592e-05 -0.0170975 -0)
(-0.00014968 -0.0172398 -0)
(-0.000204503 -0.0173019 -0)
(-0.000258134 -0.0173337 -0)
(-0.000310982 -0.0173555 -0)
(-0.000363156 -0.0173751 -0)
(-0.000414625 -0.0173954 -0)
(-0.000465292 -0.0174172 -0)
(-0.000515026 -0.0174407 -0)
(-0.000563678 -0.0174657 -0)
(-0.000611083 -0.017492 -0)
(-0.000657064 -0.0175194 -0)
(-0.000701432 -0.0175474 -0)
(-0.00074399 -0.0175759 -0)
(-0.00078453 -0.0176046 -0)
(-0.000822835 -0.0176332 -0)
(-0.000858678 -0.0176613 -0)
(-0.000891827 -0.0176885 -0)
(-0.000922019 -0.0177136 -0)
(-0.000948776 -0.0177305 -0)
(-0.000972342 -0.0177469 -0)
(-0.000992467 -0.0177623 -0)
(-0.00100894 -0.017776 -0)
(-0.00102158 -0.0177879 -0)
(-0.00103026 -0.0177981 -0)
(-0.00103491 -0.0178077 -0)
(-0.00103537 -0.017816 -0)
(-0.00103157 -0.0178228 -0)
(-0.00102347 -0.0178281 -0)
(-0.00101097 -0.0178304 -0)
(-0.000994213 -0.0178319 -0)
(-0.000973234 -0.0178331 -0)
(-0.000948097 -0.017835 -0)
(-0.000918887 -0.0178397 -0)
(-0.000885677 -0.0178497 -0)
(-0.000848389 -0.0178652 -0)
(-0.000806955 -0.0178859 -0)
(-0.000761281 -0.0179101 -0)
(-0.000711326 -0.0179352 -0)
(-3.16762e-05 -0.015084 -0)
(-9.38853e-05 -0.0154458 -0)
(-0.000151921 -0.0155969 -0)
(-0.00020772 -0.0156615 -0)
(-0.000262286 -0.0156926 -0)
(-0.000316043 -0.0157118 -0)
(-0.000369111 -0.0157277 -0)
(-0.000421466 -0.0157434 -0)
(-0.000473011 -0.01576 -0)
(-0.000523616 -0.0157776 -0)
(-0.000573128 -0.0157963 -0)
(-0.000621377 -0.0158158 -0)
(-0.000668181 -0.015836 -0)
(-0.000713345 -0.0158564 -0)
(-0.000756666 -0.015877 -0)
(-0.000797926 -0.0158975 -0)
(-0.0008369 -0.0159176 -0)
(-0.000873354 -0.0159369 -0)
(-0.000907038 -0.0159549 -0)
(-0.000937664 -0.0159702 -0)
(-0.000964632 -0.0159754 -0)
(-0.000988475 -0.0159827 -0)
(-0.00100874 -0.0159884 -0)
(-0.00102524 -0.0159924 -0)
(-0.00103778 -0.0159944 -0)
(-0.00104619 -0.015994 -0)
(-0.00105046 -0.0159929 -0)
(-0.00105038 -0.0159897 -0)
(-0.00104591 -0.0159843 -0)
(-0.00103704 -0.0159772 -0)
(-0.00102373 -0.0159675 -0)
(-0.00100601 -0.0159551 -0)
(-0.000984019 -0.0159416 -0)
(-0.000957899 -0.0159288 -0)
(-0.000927798 -0.0159196 -0)
(-0.000893835 -0.0159173 -0)
(-0.000855948 -0.0159225 -0)
(-0.000814028 -0.0159349 -0)
(-0.000767912 -0.0159523 -0)
(-0.000717507 -0.0159716 -0)
(-3.16772e-05 -0.0135546 -0)
(-9.43053e-05 -0.0139343 -0)
(-0.000152926 -0.0140929 -0)
(-0.000209299 -0.0141596 -0)
(-0.000264403 -0.0141899 -0)
(-0.000318669 -0.0142066 -0)
(-0.000372228 -0.0142188 -0)
(-0.000425064 -0.0142299 -0)
(-0.000477083 -0.0142412 -0)
(-0.000528154 -0.0142531 -0)
(-0.000578123 -0.0142654 -0)
(-0.000626819 -0.0142782 -0)
(-0.000674054 -0.0142913 -0)
(-0.000719629 -0.0143043 -0)
(-0.000763339 -0.0143172 -0)
(-0.000804958 -0.0143297 -0)
(-0.000844255 -0.0143416 -0)
(-0.000880987 -0.0143525 -0)
(-0.000914886 -0.0143616 -0)
(-0.000945529 -0.0143658 -0)
(-0.000972541 -0.014362 -0)
(-0.000996399 -0.0143606 -0)
(-0.00101657 -0.0143573 -0)
(-0.00103288 -0.0143522 -0)
(-0.00104511 -0.0143448 -0)
(-0.00105303 -0.014334 -0)
(-0.00105674 -0.0143225 -0)
(-0.001056 -0.0143087 -0)
(-0.00105073 -0.0142919 -0)
(-0.00104088 -0.0142715 -0)
(-0.00102643 -0.0142466 -0)
(-0.00100746 -0.0142174 -0)
(-0.000984189 -0.0141855 -0)
(-0.000956859 -0.014154 -0)
(-0.00092574 -0.0141268 -0)
(-0.000891032 -0.0141083 -0)
(-0.000852715 -0.0141 -0)
(-0.000810631 -0.0141017 -0)
(-0.00076453 -0.0141105 -0)
(-0.000714235 -0.0141226 -0)
(-3.14126e-05 -0.012159 -0)
(-9.39832e-05 -0.012552 -0)
(-0.000152791 -0.0127166 -0)
(-0.000209369 -0.0127851 -0)
(-0.000264646 -0.0128146 -0)
(-0.000319055 -0.0128288 -0)
(-0.000372737 -0.0128373 -0)
(-0.00042568 -0.012844 -0)
(-0.000477796 -0.0128501 -0)
(-0.000528956 -0.0128563 -0)
(-0.000579006 -0.0128625 -0)
(-0.000627774 -0.0128688 -0)
(-0.000675071 -0.0128749 -0)
(-0.000720695 -0.0128808 -0)
(-0.000764439 -0.0128863 -0)
(-0.000806075 -0.0128912 -0)
(-0.000845365 -0.0128953 -0)
(-0.00088206 -0.0128982 -0)
(-0.000915871 -0.012899 -0)
(-0.000946086 -0.0128907 -0)
(-0.000973023 -0.0128806 -0)
(-0.000996654 -0.0128713 -0)
(-0.00101648 -0.0128593 -0)
(-0.00103239 -0.0128458 -0)
(-0.00104413 -0.0128299 -0)
(-0.00105152 -0.0128109 -0)
(-0.00105451 -0.0127899 -0)
(-0.00105292 -0.0127656 -0)
(-0.0010466 -0.0127367 -0)
(-0.00103549 -0.0127017 -0)
(-0.00101955 -0.0126594 -0)
(-0.000998914 -0.0126098 -0)
(-0.000973898 -0.0125552 -0)
(-0.00094493 -0.0124999 -0)
(-0.00091246 -0.0124494 -0)
(-0.000876837 -0.0124098 -0)
(-0.000838115 -0.0123839 -0)
(-0.000796095 -0.0123716 -0)
(-0.00075041 -0.0123692 -0)
(-0.000700767 -0.0123722 -0)
(-3.09104e-05 -0.0108872 -0)
(-9.29856e-05 -0.0112889 -0)
(-0.000151613 -0.0114579 -0)
(-0.000208054 -0.0115277 -0)
(-0.00026317 -0.0115563 -0)
(-0.000317385 -0.0115681 -0)
(-0.000370847 -0.0115731 -0)
(-0.000423552 -0.0115755 -0)
(-0.000475416 -0.0115767 -0)
(-0.000526313 -0.0115773 -0)
(-0.000576091 -0.0115776 -0)
(-0.00062458 -0.0115776 -0)
(-0.000671591 -0.0115772 -0)
(-0.00071692 -0.0115762 -0)
(-0.000760363 -0.0115747 -0)
(-0.00080169 -0.0115724 -0)
(-0.000840659 -0.0115692 -0)
(-0.000877017 -0.0115646 -0)
(-0.000910452 -0.0115577 -0)
(-0.000939979 -0.0115385 -0)
(-0.000966529 -0.0115216 -0)
(-0.000989709 -0.0115052 -0)
(-0.00100907 -0.0114864 -0)
(-0.00102442 -0.0114657 -0)
(-0.00103555 -0.0114424 -0)
(-0.00104224 -0.0114158 -0)
(-0.00104438 -0.0113862 -0)
(-0.00104177 -0.0113518 -0)
(-0.00103417 -0.0113104 -0)
(-0.00102145 -0.0112597 -0)
(-0.00100356 -0.0111975 -0)
(-0.000980667 -0.0111237 -0)
(-0.000953239 -0.0110413 -0)
(-0.000921951 -0.010956 -0)
(-0.000887538 -0.0108759 -0)
(-0.000850586 -0.0108089 -0)
(-0.000811291 -0.01076 -0)
(-0.000769428 -0.0107293 -0)
(-0.000724485 -0.0107124 -0)
(-0.000675951 -0.0107027 -0)
(-3.01992e-05 -0.00973005 -0)
(-9.13803e-05 -0.0101357 -0)
(-0.000149486 -0.0103074 -0)
(-0.000205472 -0.0103779 -0)
(-0.000260117 -0.0104056 -0)
(-0.000313829 -0.0104151 -0)
(-0.000366756 -0.0104168 -0)
(-0.000418902 -0.010415 -0)
(-0.000470189 -0.0104114 -0)
(-0.000520494 -0.0104068 -0)
(-0.00056967 -0.0104015 -0)
(-0.000617548 -0.0103955 -0)
(-0.000663944 -0.0103889 -0)
(-0.000708649 -0.0103814 -0)
(-0.000751468 -0.0103733 -0)
(-0.000792169 -0.0103643 -0)
(-0.00083051 -0.0103541 -0)
(-0.00086623 -0.0103425 -0)
(-0.000898599 -0.0103234 -0)
(-0.000927646 -0.0103 -0)
(-0.000953578 -0.0102772 -0)
(-0.000976111 -0.0102544 -0)
(-0.000994821 -0.0102297 -0)
(-0.0010095 -0.0102029 -0)
(-0.00101991 -0.0101735 -0)
(-0.0010258 -0.0101405 -0)
(-0.001027 -0.0101033 -0)
(-0.00102321 -0.0100594 -0)
(-0.00101408 -0.0100055 -0)
(-0.000999359 -0.0099377 -0)
(-0.000978924 -0.009853 -0)
(-0.000952995 -0.00975076 -0)
(-0.000922224 -0.00963452 -0)
(-0.000887624 -0.00951217 -0)
(-0.000850343 -0.00939458 -0)
(-0.000811338 -0.00929277 -0)
(-0.000771041 -0.00921402 -0)
(-0.000729241 -0.00915936 -0)
(-0.000685244 -0.00912347 -0)
(-0.000637786 -0.00909039 -0)
(-2.93087e-05 -0.00867899 -0)
(-8.92357e-05 -0.00908373 -0)
(-0.000146501 -0.00925633 -0)
(-0.000201739 -0.00932709 -0)
(-0.000255628 -0.00935368 -0)
(-0.000308548 -0.00936097 -0)
(-0.000360649 -0.00935952 -0)
(-0.000411938 -0.00935383 -0)
(-0.000462344 -0.00934578 -0)
(-0.000511748 -0.00933621 -0)
(-0.000560008 -0.00932552 -0)
(-0.000606961 -0.00931391 -0)
(-0.000652427 -0.00930143 -0)
(-0.000696205 -0.009288 -0)
(-0.000738096 -0.0092737 -0)
(-0.000777875 -0.00925839 -0)
(-0.000815299 -0.00924185 -0)
(-0.000850109 -0.00922376 -0)
(-0.000881195 -0.00919459 -0)
(-0.000909447 -0.00916641 -0)
(-0.000934558 -0.00913844 -0)
(-0.000956271 -0.00911041 -0)
(-0.000974201 -0.00908077 -0)
(-0.000988109 -0.00904919 -0)
(-0.000997743 -0.00901504 -0)
(-0.0010028 -0.00897698 -0)
(-0.001003 -0.00893336 -0)
(-0.000997887 -0.00888069 -0)
(-0.000986967 -0.00881409 -0)
(-0.000969773 -0.00872806 -0)
(-0.000946073 -0.00861802 -0)
(-0.000916105 -0.00848262 -0)
(-0.00088075 -0.00832605 -0)
(-0.000841467 -0.00815846 -0)
(-0.000799981 -0.00799429 -0)
(-0.000757805 -0.00784849 -0)
(-0.000715743 -0.00773153 -0)
(-0.000673662 -0.00764579 -0)
(-0.000630668 -0.00758506 -0)
(-0.000585251 -0.00753309 -0)
(-2.82675e-05 -0.00772571 -0)
(-8.66212e-05 -0.00812518 -0)
(-0.000142753 -0.00829694 -0)
(-0.00019697 -0.00836728 -0)
(-0.000249835 -0.00839271 -0)
(-0.000301697 -0.00839788 -0)
(-0.000352701 -0.00839347 -0)
(-0.000402857 -0.0083841 -0)
(-0.000452098 -0.00837182 -0)
(-0.000500313 -0.00835758 -0)
(-0.000547365 -0.00834186 -0)
(-0.000593096 -0.00832494 -0)
(-0.000637333 -0.00830696 -0)
(-0.000679883 -0.00828789 -0)
(-0.000720549 -0.00826782 -0)
(-0.000759112 -0.00824666 -0)
(-0.000795331 -0.00822419 -0)
(-0.000828411 -0.0081946 -0)
(-0.00085852 -0.00816209 -0)
(-0.000885737 -0.00812967 -0)
(-0.000909837 -0.00809735 -0)
(-0.000930586 -0.00806505 -0)
(-0.000947638 -0.00803166 -0)
(-0.000960731 -0.00799666 -0)
(-0.000969577 -0.00795919 -0)
(-0.000973804 -0.00791744 -0)
(-0.000972967 -0.00786865 -0)
(-0.000966431 -0.00780799 -0)
(-0.000953429 -0.00772872 -0)
(-0.000933218 -0.00762315 -0)
(-0.000905362 -0.00748474 -0)
(-0.000870083 -0.00731109 -0)
(-0.000828531 -0.00710689 -0)
(-0.000782741 -0.00688485 -0)
(-0.00073522 -0.00666368 -0)
(-0.000688266 -0.0064632 -0)
(-0.00064325 -0.006298 -0)
(-0.000600203 -0.00617231 -0)
(-0.000557201 -0.00607012 -0)
(-0.000515346 -0.00600686 -0)
(-2.71033e-05 -0.00686256 -0)
(-8.36047e-05 -0.00725279 -0)
(-0.000138334 -0.00742208 -0)
(-0.000191277 -0.0074914 -0)
(-0.000242872 -0.0075155 -0)
(-0.000293429 -0.0075186 -0)
(-0.000343085 -0.00751137 -0)
(-0.00039185 -0.00749853 -0)
(-0.000439662 -0.00748226 -0)
(-0.000486414 -0.0074636 -0)
(-0.000531977 -0.00744314 -0)
(-0.000576202 -0.00742122 -0)
(-0.000618922 -0.00739805 -0)
(-0.000659953 -0.00737367 -0)
(-0.000699104 -0.00734817 -0)
(-0.000736163 -0.00732152 -0)
(-0.000770783 -0.00729239 -0)
(-0.000802044 -0.00725439 -0)
(-0.000830855 -0.00721816 -0)
(-0.000856821 -0.00718207 -0)
(-0.000879745 -0.00714625 -0)
(-0.000899417 -0.00711076 -0)
(-0.000915532 -0.00707483 -0)
(-0.000927807 -0.0070378 -0)
(-0.000935902 -0.00699848 -0)
(-0.000939345 -0.00695447 -0)
(-0.00093749 -0.00690177 -0)
(-0.000929425 -0.00683389 -0)
(-0.000914019 -0.00674184 -0)
(-0.000890133 -0.00661529 -0)
(-0.000857019 -0.00644519 -0)
(-0.000814829 -0.00622766 -0)
(-0.000765018 -0.00596777 -0)
(-0.00071035 -0.00568105 -0)
(-0.000654367 -0.00539117 -0)
(-0.000600444 -0.00512381 -0)
(-0.000550768 -0.00489865 -0)
(-0.000505675 -0.00472245 -0)
(-0.000462951 -0.00457874 -0)
(-0.000424837 -0.00449493 -0)
(-2.58425e-05 -0.00608236 -0)
(-8.02523e-05 -0.00645993 -0)
(-0.000133337 -0.00662525 -0)
(-0.000184772 -0.00669293 -0)
(-0.00023487 -0.00671551 -0)
(-0.000283894 -0.00671656 -0)
(-0.000331968 -0.00670662 -0)
(-0.000379101 -0.00669048 -0)
(-0.000425234 -0.00667041 -0)
(-0.000470266 -0.00664755 -0)
(-0.000514074 -0.00662257 -0)
(-0.000556518 -0.0065959 -0)
(-0.00059744 -0.0065678 -0)
(-0.000636665 -0.00653837 -0)
(-0.000674011 -0.00650772 -0)
(-0.000709275 -0.00647584 -0)
(-0.000741399 -0.00643517 -0)
(-0.000771194 -0.00639509 -0)
(-0.000798455 -0.00635552 -0)
(-0.000822974 -0.0063164 -0)
(-0.000844585 -0.006278 -0)
(-0.000863105 -0.00624046 -0)
(-0.000878265 -0.00620327 -0)
(-0.000889762 -0.0061656 -0)
(-0.000897191 -0.00612589 -0)
(-0.000899937 -0.00608098 -0)
(-0.0008971 -0.00602552 -0)
(-0.000887395 -0.00595105 -0)
(-0.000869196 -0.00584592 -0)
(-0.00084082 -0.0056966 -0)
(-0.000801068 -0.00549101 -0)
(-0.000749946 -0.00522332 -0)
(-0.000689261 -0.00489882 -0)
(-0.000622686 -0.00453614 -0)
(-0.000555102 -0.00416458 -0)
(-0.00049132 -0.00381669 -0)
(-0.000434652 -0.00351818 -0)
(-0.000385737 -0.00327742 -0)
(-0.000343326 -0.0030887 -0)
(-0.000309471 -0.00297823 -0)
(-2.45095e-05 -0.00537845 -0)
(-7.66277e-05 -0.00574047 -0)
(-0.000127852 -0.0059005 -0)
(-0.000177568 -0.00596595 -0)
(-0.000225959 -0.00598678 -0)
(-0.00027324 -0.00598573 -0)
(-0.000319515 -0.00597315 -0)
(-0.000364792 -0.00595383 -0)
(-0.000409011 -0.00593012 -0)
(-0.000452077 -0.00590322 -0)
(-0.000493874 -0.0058739 -0)
(-0.000534268 -0.00584265 -0)
(-0.000573115 -0.0058098 -0)
(-0.000610249 -0.0057755 -0)
(-0.000645493 -0.00573986 -0)
(-0.000678088 -0.00569802 -0)
(-0.000708172 -0.00565328 -0)
(-0.000736073 -0.00560992 -0)
(-0.000761553 -0.00556745 -0)
(-0.000784455 -0.00552604 -0)
(-0.000804648 -0.00548605 -0)
(-0.00082198 -0.00544766 -0)
(-0.000836212 -0.00541048 -0)
(-0.000847016 -0.00537354 -0)
(-0.000853898 -0.00533479 -0)
(-0.000856063 -0.00529022 -0)
(-0.000852284 -0.00523295 -0)
(-0.000840785 -0.00515224 -0)
(-0.000819289 -0.00503333 -0)
(-0.000785379 -0.00485896 -0)
(-0.000737233 -0.00461337 -0)
(-0.00067462 -0.00428833 -0)
(-0.000599748 -0.00388926 -0)
(-0.000517428 -0.00343817 -0)
(-0.000434251 -0.00297072 -0)
(-0.000356896 -0.00252727 -0)
(-0.000290168 -0.00214042 -0)
(-0.000234108 -0.00181232 -0)
(-0.00019269 -0.00157931 -0)
(-0.000163883 -0.00143702 -0)
(-2.31264e-05 -0.0047446 -0)
(-7.27917e-05 -0.0050888 -0)
(-0.000121967 -0.0052424 -0)
(-0.000169774 -0.00530506 -0)
(-0.000216269 -0.00532388 -0)
(-0.000261615 -0.00532066 -0)
(-0.000305893 -0.00530544 -0)
(-0.000349103 -0.005283 -0)
(-0.000391187 -0.00525572 -0)
(-0.000432051 -0.00522489 -0)
(-0.000471586 -0.00519132 -0)
(-0.000509667 -0.00515559 -0)
(-0.00054616 -0.00511807 -0)
(-0.000580907 -0.00507896 -0)
(-0.00061343 -0.00503574 -0)
(-0.000643237 -0.0049864 -0)
(-0.000671128 -0.00493889 -0)
(-0.00069688 -0.00489263 -0)
(-0.000720378 -0.00484788 -0)
(-0.000741527 -0.00480504 -0)
(-0.000760237 -0.0047645 -0)
(-0.000776386 -0.00472648 -0)
(-0.000789755 -0.00469057 -0)
(-0.000799984 -0.0046556 -0)
(-0.000806464 -0.00461899 -0)
(-0.000808169 -0.00457574 -0)
(-0.00080346 -0.00451729 -0)
(-0.000789929 -0.00443029 -0)
(-0.000764451 -0.00429635 -0)
(-0.000723638 -0.00409388 -0)
(-0.000664834 -0.00380282 -0)
(-0.00058746 -0.00341209 -0)
(-0.000494198 -0.00292716 -0)
(-0.000391289 -0.00237388 -0)
(-0.000287494 -0.00179506 -0)
(-0.000191877 -0.00123974 -0)
(-0.000111204 -0.000748289 -0)
(-4.65268e-05 -0.000328534 -0)
(-4.65653e-06 -3.48148e-05 -0)
(1.85556e-05 0.000148469 0)
(-2.17135e-05 -0.00417501 -0)
(-6.88017e-05 -0.00449971 -0)
(-0.000115769 -0.00464593 -0)
(-0.0001615 -0.00470529 -0)
(-0.000205932 -0.00472184 -0)
(-0.000249167 -0.00471631 -0)
(-0.000291265 -0.00469841 -0)
(-0.000332213 -0.00467284 -0)
(-0.000371951 -0.00464201 -0)
(-0.000410385 -0.00460725 -0)
(-0.000447412 -0.00456945 -0)
(-0.000482914 -0.00452922 -0)
(-0.000516766 -0.004487 -0)
(-0.000548709 -0.00444209 -0)
(-0.000577763 -0.00438844 -0)
(-0.000605083 -0.00433676 -0)
(-0.000630451 -0.00428632 -0)
(-0.000653829 -0.00423768 -0)
(-0.000675183 -0.00419144 -0)
(-0.000694483 -0.00414811 -0)
(-0.000711683 -0.00410812 -0)
(-0.000726691 -0.00407161 -0)
(-0.000739294 -0.00403813 -0)
(-0.000749086 -0.00400621 -0)
(-0.000755314 -0.00397266 -0)
(-0.00075666 -0.00393142 -0)
(-0.000750969 -0.00387201 -0)
(-0.000735028 -0.00377812 -0)
(-0.000704614 -0.00362721 -0)
(-0.00065508 -0.00339262 -0)
(-0.000582668 -0.00304935 -0)
(-0.000486324 -0.00258306 -0)
(-0.000369319 -0.00199939 -0)
(-0.000239705 -0.00132857 -0)
(-0.000108993 -0.000621465 -0)
(1.07529e-05 6.34263e-05 0)
(0.000110452 0.000678405 0)
(0.000186023 0.00119902 0)
(0.00022918 0.00156457 0)
(0.000246136 0.00179931 0)
(-2.02888e-05 -0.00366429 -0)
(-6.47116e-05 -0.00396836 -0)
(-0.00010934 -0.00410648 -0)
(-0.000152856 -0.00416207 -0)
(-0.000195075 -0.00417607 -0)
(-0.000236046 -0.00416806 -0)
(-0.000275795 -0.00414738 -0)
(-0.000314298 -0.00411859 -0)
(-0.000351488 -0.00408415 -0)
(-0.000387269 -0.00404538 -0)
(-0.00042154 -0.00400324 -0)
(-0.000454189 -0.00395839 -0)
(-0.000485099 -0.00391131 -0)
(-0.000513045 -0.00385399 -0)
(-0.000539323 -0.00379827 -0)
(-0.000563751 -0.00374352 -0)
(-0.00058635 -0.00369056 -0)
(-0.000607174 -0.0036403 -0)
(-0.000626268 -0.00359347 -0)
(-0.000643665 -0.00355066 -0)
(-0.000659366 -0.00351226 -0)
(-0.000673299 -0.00347833 -0)
(-0.000685251 -0.00344824 -0)
(-0.000694745 -0.0034202 -0)
(-0.000700852 -0.00339036 -0)
(-0.000701891 -0.00335144 -0)
(-0.00069506 -0.00329082 -0)
(-0.000676124 -0.00318882 -0)
(-0.000639449 -0.00301811 -0)
(-0.000578765 -0.00274621 -0)
(-0.000488883 -0.00234247 -0)
(-0.000368133 -0.00178894 -0)
(-0.000220543 -0.00109166 -0)
(-5.64882e-05 -0.000286091 -0)
(0.000109031 0.000567814 0)
(0.000260192 0.00140136 0)
(0.000386951 0.00216994 0)
(0.000474405 0.0027924 0)
(0.000519339 0.00323958 0)
(0.00052921 0.00353814 0)
(-1.8868e-05 -0.0032074 -0)
(-6.05711e-05 -0.00349024 -0)
(-0.000102761 -0.00361972 -0)
(-0.000143945 -0.00367115 -0)
(-0.000183827 -0.00368231 -0)
(-0.000222395 -0.00367161 -0)
(-0.000259644 -0.00364797 -0)
(-0.000295529 -0.00361582 -0)
(-0.000329977 -0.00357761 -0)