/*--------------------------------*- C++ -*----------------------------------*\
  =========                 |
  \\      /  F ield         | OpenFOAM: The Open Source CFD Toolbox
   \\    /   O peration     | Website:  https://openfoam.org
    \\  /    A nd           | Version:  6
     \\/     M anipulation  |
\*---------------------------------------------------------------------------*/
FoamFile
{
    version     2.0;
    format      ascii;
    class       volScalarField;
    location    "30";
    object      fw;
}
// * * * * * * * * * * * * * * * * * * * * * * * * * * * * * * * * * * * * * //

dimensions      [0 0 0 0 0 0 0];

internalField   nonuniform List<scalar> 
8800
(
1.03115
1.03116
1.03117
1.03119
1.03121
1.03125
1.03128
1.03133
1.03137
1.03143
1.03149
1.03155
1.03162
1.03169
1.03177
1.03185
1.03194
1.03203
1.03213
1.03223
1.03233
1.03243
1.03254
1.03265
1.03276
1.03287
1.03298
1.03309
1.0332
1.03332
1.03343
1.03354
1.03364
1.03375
1.03385
1.03395
1.03404
1.03414
1.03422
1.0343
1.0302
1.03021
1.03022
1.03024
1.03027
1.0303
1.03034
1.03038
1.03043
1.03048
1.03054
1.03061
1.03068
1.03075
1.03083
1.03091
1.031
1.03109
1.03119
1.03129
1.03139
1.0315
1.0316
1.03171
1.03183
1.03194
1.03205
1.03217
1.03228
1.0324
1.03251
1.03262
1.03273
1.03284
1.03294
1.03304
1.03314
1.03323
1.03332
1.0334
1.0293
1.02931
1.02932
1.02934
1.02937
1.0294
1.02944
1.02948
1.02953
1.02958
1.02964
1.02971
1.02978
1.02986
1.02994
1.03002
1.03011
1.0302
1.0303
1.0304
1.03051
1.03061
1.03072
1.03083
1.03095
1.03106
1.03118
1.03129
1.03141
1.03153
1.03164
1.03176
1.03187
1.03198
1.03209
1.03219
1.03229
1.03238
1.03247
1.03256
1.02845
1.02845
1.02847
1.02849
1.02851
1.02854
1.02858
1.02863
1.02868
1.02873
1.02879
1.02886
1.02893
1.02901
1.02909
1.02917
1.02927
1.02936
1.02946
1.02956
1.02967
1.02978
1.02989
1.03
1.03012
1.03024
1.03035
1.03047
1.03059
1.03071
1.03083
1.03095
1.03106
1.03117
1.03128
1.03139
1.03149
1.03159
1.03169
1.03177
1.02763
1.02764
1.02765
1.02767
1.0277
1.02773
1.02777
1.02782
1.02787
1.02792
1.02799
1.02805
1.02813
1.0282
1.02829
1.02837
1.02847
1.02856
1.02866
1.02877
1.02888
1.02899
1.0291
1.02922
1.02934
1.02946
1.02958
1.0297
1.02982
1.02995
1.03007
1.03019
1.03031
1.03042
1.03054
1.03065
1.03075
1.03086
1.03095
1.03104
1.02686
1.02687
1.02688
1.02691
1.02693
1.02697
1.027
1.02705
1.0271
1.02716
1.02722
1.02729
1.02736
1.02744
1.02753
1.02762
1.02771
1.02781
1.02791
1.02802
1.02813
1.02825
1.02836
1.02848
1.02861
1.02873
1.02885
1.02898
1.02911
1.02923
1.02936
1.02948
1.02961
1.02973
1.02984
1.02996
1.03007
1.03017
1.03028
1.03037
1.02613
1.02614
1.02616
1.02618
1.0262
1.02624
1.02628
1.02632
1.02638
1.02643
1.0265
1.02657
1.02664
1.02673
1.02681
1.0269
1.027
1.0271
1.02721
1.02732
1.02743
1.02755
1.02767
1.02779
1.02792
1.02805
1.02818
1.02831
1.02844
1.02857
1.0287
1.02883
1.02896
1.02908
1.0292
1.02932
1.02944
1.02955
1.02965
1.02975
1.02544
1.02545
1.02547
1.02549
1.02552
1.02555
1.02559
1.02564
1.02569
1.02575
1.02582
1.02589
1.02596
1.02605
1.02614
1.02623
1.02633
1.02643
1.02654
1.02666
1.02677
1.0269
1.02702
1.02715
1.02728
1.02741
1.02755
1.02768
1.02782
1.02795
1.02809
1.02822
1.02836
1.02849
1.02862
1.02874
1.02886
1.02897
1.02908
1.02919
1.02479
1.0248
1.02481
1.02483
1.02486
1.0249
1.02494
1.02499
1.02504
1.0251
1.02517
1.02524
1.02532
1.02541
1.0255
1.0256
1.0257
1.02581
1.02592
1.02604
1.02616
1.02628
1.02641
1.02655
1.02668
1.02682
1.02696
1.0271
1.02724
1.02739
1.02753
1.02767
1.02781
1.02794
1.02808
1.02821
1.02833
1.02845
1.02857
1.02868
1.02417
1.02418
1.02419
1.02422
1.02425
1.02428
1.02432
1.02437
1.02443
1.02449
1.02456
1.02464
1.02472
1.02481
1.0249
1.025
1.02511
1.02522
1.02534
1.02546
1.02558
1.02571
1.02585
1.02599
1.02613
1.02627
1.02642
1.02657
1.02671
1.02686
1.02701
1.02716
1.0273
1.02745
1.02759
1.02773
1.02786
1.02799
1.02811
1.02822
1.02358
1.02359
1.02361
1.02363
1.02366
1.0237
1.02374
1.02379
1.02385
1.02391
1.02399
1.02406
1.02415
1.02424
1.02434
1.02444
1.02455
1.02467
1.02479
1.02491
1.02504
1.02518
1.02532
1.02547
1.02561
1.02576
1.02592
1.02607
1.02623
1.02638
1.02654
1.0267
1.02685
1.027
1.02715
1.02729
1.02743
1.02757
1.0277
1.02782
1.02303
1.02304
1.02305
1.02308
1.02311
1.02315
1.02319
1.02324
1.0233
1.02337
1.02344
1.02352
1.02361
1.0237
1.0238
1.02391
1.02403
1.02415
1.02427
1.0244
1.02454
1.02468
1.02483
1.02498
1.02514
1.0253
1.02546
1.02562
1.02578
1.02595
1.02611
1.02628
1.02644
1.0266
1.02676
1.02691
1.02706
1.0272
1.02734
1.02746
1.0225
1.02251
1.02253
1.02255
1.02258
1.02262
1.02267
1.02272
1.02278
1.02285
1.02293
1.02301
1.0231
1.0232
1.0233
1.02342
1.02353
1.02366
1.02379
1.02393
1.02407
1.02422
1.02438
1.02454
1.0247
1.02487
1.02504
1.02521
1.02538
1.02555
1.02573
1.0259
1.02607
1.02624
1.02641
1.02657
1.02673
1.02688
1.02703
1.02716
1.022
1.02201
1.02203
1.02205
1.02208
1.02212
1.02217
1.02223
1.02229
1.02236
1.02244
1.02253
1.02262
1.02272
1.02283
1.02295
1.02307
1.0232
1.02334
1.02349
1.02364
1.02379
1.02396
1.02412
1.0243
1.02447
1.02465
1.02483
1.02502
1.0252
1.02538
1.02557
1.02575
1.02593
1.02611
1.02628
1.02645
1.02661
1.02676
1.02691
1.02153
1.02153
1.02155
1.02158
1.02161
1.02165
1.0217
1.02176
1.02182
1.0219
1.02198
1.02207
1.02217
1.02227
1.02239
1.02251
1.02264
1.02277
1.02292
1.02307
1.02323
1.02339
1.02357
1.02374
1.02392
1.02411
1.0243
1.02449
1.02469
1.02488
1.02508
1.02527
1.02547
1.02566
1.02585
1.02603
1.02621
1.02638
1.02655
1.02671
1.02107
1.02108
1.0211
1.02113
1.02116
1.0212
1.02125
1.02131
1.02138
1.02146
1.02154
1.02163
1.02174
1.02185
1.02196
1.02209
1.02223
1.02237
1.02252
1.02268
1.02285
1.02302
1.0232
1.02339
1.02358
1.02378
1.02398
1.02419
1.02439
1.0246
1.02481
1.02502
1.02523
1.02543
1.02563
1.02583
1.02602
1.02621
1.02639
1.02656
1.02064
1.02065
1.02067
1.02069
1.02073
1.02077
1.02083
1.02089
1.02096
1.02104
1.02112
1.02122
1.02133
1.02144
1.02157
1.0217
1.02184
1.02199
1.02215
1.02232
1.02249
1.02268
1.02287
1.02307
1.02327
1.02348
1.0237
1.02391
1.02413
1.02436
1.02458
1.0248
1.02502
1.02524
1.02546
1.02567
1.02588
1.02608
1.02627
1.02645
1.02023
1.02024
1.02026
1.02028
1.02032
1.02036
1.02042
1.02048
1.02055
1.02064
1.02073
1.02083
1.02094
1.02106
1.02119
1.02133
1.02148
1.02163
1.0218
1.02198
1.02216
1.02236
1.02256
1.02277
1.02299
1.02321
1.02344
1.02367
1.0239
1.02414
1.02438
1.02462
1.02485
1.02509
1.02532
1.02555
1.02577
1.02599
1.0262
1.0264
1.01983
1.01984
1.01986
1.01989
1.01993
1.01997
1.02003
1.02009
1.02017
1.02025
1.02035
1.02045
1.02057
1.02069
1.02083
1.02097
1.02113
1.02129
1.02147
1.02166
1.02185
1.02206
1.02227
1.02249
1.02272
1.02296
1.0232
1.02345
1.0237
1.02396
1.02421
1.02447
1.02472
1.02498
1.02523
1.02548
1.02572
1.02595
1.02618
1.0264
1.01945
1.01946
1.01948
1.01951
1.01955
1.01959
1.01965
1.01972
1.0198
1.01989
1.01998
1.02009
1.02021
1.02034
1.02048
1.02064
1.0208
1.02097
1.02116
1.02135
1.02156
1.02178
1.022
1.02224
1.02248
1.02274
1.02299
1.02326
1.02353
1.0238
1.02407
1.02435
1.02462
1.0249
1.02517
1.02544
1.02571
1.02596
1.02621
1.02645
1.01908
1.01909
1.01911
1.01914
1.01918
1.01923
1.01929
1.01936
1.01944
1.01953
1.01963
1.01975
1.01987
1.02001
1.02015
1.02031
1.02048
1.02067
1.02086
1.02107
1.02128
1.02151
1.02175
1.022
1.02226
1.02253
1.02281
1.02309
1.02338
1.02367
1.02396
1.02426
1.02456
1.02486
1.02515
1.02545
1.02574
1.02602
1.02629
1.02655
1.01873
1.01874
1.01876
1.01879
1.01883
1.01888
1.01894
1.01901
1.0191
1.01919
1.0193
1.01941
1.01954
1.01968
1.01984
1.02
1.02018
1.02037
1.02058
1.02079
1.02102
1.02126
1.02152
1.02178
1.02206
1.02234
1.02264
1.02294
1.02325
1.02356
1.02388
1.0242
1.02453
1.02485
1.02518
1.0255
1.02582
1.02613
1.02643
1.02671
1.01838
1.01839
1.01841
1.01844
1.01849
1.01854
1.0186
1.01868
1.01876
1.01886
1.01897
1.01909
1.01922
1.01937
1.01953
1.0197
1.01989
1.02009
1.0203
1.02053
1.02077
1.02103
1.0213
1.02158
1.02187
1.02217
1.02249
1.02281
1.02314
1.02348
1.02382
1.02417
1.02453
1.02488
1.02524
1.02559
1.02594
1.02628
1.02662
1.02693
1.01805
1.01806
1.01808
1.01811
1.01815
1.01821
1.01827
1.01835
1.01844
1.01854
1.01865
1.01878
1.01891
1.01907
1.01923
1.01941
1.01961
1.01982
1.02004
1.02028
1.02053
1.0208
1.02108
1.02138
1.02169
1.02201
1.02235
1.02269
1.02305
1.02342
1.02379
1.02417
1.02455
1.02494
1.02534
1.02573
1.02612
1.0265
1.02686
1.02721
1.01772
1.01773
1.01775
1.01778
1.01782
1.01788
1.01795
1.01803
1.01812
1.01822
1.01834
1.01847
1.01861
1.01877
1.01894
1.01913
1.01933
1.01955
1.01978
1.02003
1.0203
1.02058
1.02088
1.02119
1.02152
1.02187
1.02222
1.02259
1.02298
1.02337
1.02377
1.02419
1.02461
1.02504
1.02547
1.02591
1.02634
1.02677
1.02718
1.02756
1.01739
1.0174
1.01743
1.01746
1.0175
1.01756
1.01763
1.01771
1.0178
1.01791
1.01803
1.01817
1.01831
1.01848
1.01866
1.01885
1.01906
1.01929
1.01953
1.01979
1.02007
1.02037
1.02068
1.02101
1.02136
1.02173
1.02211
1.0225
1.02291
1.02334
1.02378
1.02423
1.0247
1.02517
1.02565
1.02614
1.02662
1.0271
1.02756
1.02799
1.01708
1.01709
1.01711
1.01714
1.01719
1.01725
1.01732
1.0174
1.0175
1.01761
1.01773
1.01787
1.01802
1.01819
1.01837
1.01858
1.01879
1.01903
1.01929
1.01956
1.01985
1.02016
1.02049
1.02084
1.0212
1.02159
1.022
1.02242
1.02286
1.02332
1.0238
1.02429
1.02481
1.02533
1.02587
1.02642
1.02697
1.0275
1.02802
1.0285
1.01676
1.01677
1.01679
1.01683
1.01688
1.01694
1.01701
1.01709
1.01719
1.0173
1.01743
1.01757
1.01773
1.0179
1.01809
1.0183
1.01853
1.01878
1.01904
1.01932
1.01963
1.01995
1.0203
1.02066
1.02105
1.02146
1.02189
1.02234
1.02281
1.02331
1.02383
1.02438
1.02494
1.02553
1.02614
1.02675
1.02737
1.02798
1.02856
1.02911
1.01645
1.01646
1.01648
1.01652
1.01657
1.01663
1.0167
1.01679
1.01689
1.017
1.01713
1.01728
1.01744
1.01762
1.01782
1.01803
1.01827
1.01852
1.01879
1.01909
1.0194
1.01974
1.0201
1.02048
1.02089
1.02132
1.02178
1.02226
1.02277
1.02331
1.02388
1.02448
1.02511
1.02576
1.02645
1.02715
1.02785
1.02854
1.0292
1.02982
1.01614
1.01615
1.01617
1.01621
1.01626
1.01632
1.01639
1.01648
1.01658
1.0167
1.01683
1.01698
1.01715
1.01734
1.01754
1.01776
1.018
1.01826
1.01854
1.01885
1.01918
1.01953
1.0199
1.0203
1.02073
1.02119
1.02167
1.02218
1.02273
1.02331
1.02393
1.02459
1.02529
1.02603
1.0268
1.0276
1.02841
1.0292
1.02996
1.03066
1.01583
1.01584
1.01587
1.0159
1.01595
1.01601
1.01609
1.01618
1.01628
1.0164
1.01654
1.01669
1.01686
1.01705
1.01726
1.01748
1.01773
1.018
1.01829
1.01861
1.01894
1.01931
1.0197
1.02011
1.02056
1.02104
1.02155
1.0221
1.02268
1.02331
1.02398
1.02471
1.02549
1.02633
1.02721
1.02812
1.02905
1.02996
1.03084
1.03164
1.01552
1.01553
1.01556
1.01559
1.01564
1.01571
1.01578
1.01587
1.01598
1.0161
1.01624
1.0164
1.01657
1.01676
1.01697
1.01721
1.01746
1.01774
1.01803
1.01836
1.01871
1.01908
1.01948
1.01992
1.02038
1.02088
1.02142
1.022
1.02262
1.0233
1.02404
1.02484
1.02571
1.02665
1.02766
1.02871
1.02979
1.03086
1.03188
1.03281
1.01521
1.01522
1.01525
1.01529
1.01534
1.0154
1.01548
1.01557
1.01568
1.0158
1.01594
1.0161
1.01628
1.01647
1.01669
1.01693
1.01718
1.01747
1.01777
1.0181
1.01846
1.01884
1.01926
1.01971
1.02019
1.02071
1.02127
1.02188
1.02255
1.02328
1.02408
1.02496
1.02593
1.027
1.02815
1.02937
1.03063
1.03189
1.0331
1.03419
1.0149
1.01491
1.01494
1.01498
1.01503
1.01509
1.01517
1.01526
1.01537
1.0155
1.01564
1.0158
1.01598
1.01618
1.0164
1.01664
1.0169
1.01719
1.0175
1.01783
1.0182
1.01859
1.01902
1.01948
1.01998
1.02052
1.02111
1.02175
1.02245
1.02323
1.0241
1.02507
1.02615
1.02735
1.02868
1.0301
1.03159
1.0331
1.03455
1.03586
1.01459
1.0146
1.01463
1.01466
1.01472
1.01478
1.01486
1.01495
1.01506
1.01519
1.01533
1.0155
1.01568
1.01588
1.0161
1.01635
1.01661
1.0169
1.01722
1.01756
1.01793
1.01833
1.01876
1.01923
1.01975
1.0203
1.02091
1.02158
1.02232
1.02315
1.02409
1.02515
1.02635
1.02771
1.02922
1.03089
1.03267
1.0345
1.03629
1.0379
1.01428
1.01429
1.01431
1.01435
1.0144
1.01447
1.01455
1.01464
1.01475
1.01488
1.01503
1.01519
1.01537
1.01558
1.0158
1.01605
1.01631
1.01661
1.01692
1.01727
1.01764
1.01805
1.01849
1.01897
1.01949
1.02006
1.02069
1.02138
1.02216
1.02304
1.02403
1.02518
1.02651
1.02803
1.02977
1.03172
1.03386
1.03613
1.0384
1.04046
1.01396
1.01398
1.014
1.01404
1.01409
1.01415
1.01423
1.01433
1.01444
1.01457
1.01471
1.01488
1.01506
1.01527
1.01549
1.01574
1.01601
1.0163
1.01662
1.01697
1.01735
1.01776
1.0182
1.01868
1.01921
1.01979
1.02044
1.02115
1.02195
1.02287
1.02393
1.02516
1.0266
1.02829
1.03026
1.03253
1.03512
1.03797
1.04097
1.0438
1.01365
1.01366
1.01368
1.01372
1.01377
1.01384
1.01392
1.01401
1.01412
1.01425
1.0144
1.01456
1.01475
1.01495
1.01518
1.01542
1.01569
1.01599
1.01631
1.01666
1.01703
1.01744
1.01789
1.01838
1.01891
1.01949
1.02014
1.02087
1.02169
1.02264
1.02375
1.02505
1.0266
1.02845
1.03065
1.03327
1.03637
1.03999
1.04408
1.04831
1.01333
1.01334
1.01336
1.0134
1.01345
1.01352
1.0136
1.01369
1.0138
1.01393
1.01408
1.01424
1.01443
1.01463
1.01486
1.0151
1.01537
1.01566
1.01598
1.01633
1.01671
1.01711
1.01756
1.01804
1.01858
1.01916
1.01981
1.02055
1.02138
1.02235
1.02348
1.02484
1.02647
1.02844
1.03084
1.03379
1.03745
1.04203
1.04774
1.0546
1.01301
1.01302
1.01304
1.01308
1.01313
1.01319
1.01327
1.01337
1.01348
1.01361
1.01376
1.01392
1.0141
1.0143
1.01453
1.01477
1.01504
1.01533
1.01565
1.01599
1.01636
1.01677
1.01721
1.01769
1.01822
1.0188
1.01944
1.02017
1.02101
1.02198
1.02313
1.02451
1.02618
1.02822
1.03075
1.03393
1.03807
1.04367
1.05164
1.06333
1.03438
1.03445
1.03451
1.03456
1.03461
1.03465
1.03469
1.03471
1.03473
1.03473
1.03473
1.03473
1.03471
1.03469
1.03465
1.03461
1.03456
1.03451
1.03445
1.03438
1.03348
1.03355
1.03361
1.03367
1.03372
1.03376
1.03379
1.03382
1.03384
1.03384
1.03384
1.03384
1.03382
1.03379
1.03376
1.03372
1.03367
1.03361
1.03355
1.03348
1.03264
1.03271
1.03278
1.03283
1.03289
1.03293
1.03296
1.03299
1.03301
1.03301
1.03301
1.03301
1.03299
1.03296
1.03293
1.03289
1.03283
1.03278
1.03271
1.03264
1.03185
1.03193
1.032
1.03206
1.03211
1.03215
1.03219
1.03222
1.03223
1.03224
1.03224
1.03223
1.03222
1.03219
1.03215
1.03211
1.03206
1.032
1.03193
1.03185
1.03113
1.03121
1.03128
1.03134
1.03139
1.03144
1.03148
1.0315
1.03152
1.03153
1.03153
1.03152
1.0315
1.03148
1.03144
1.03139
1.03134
1.03128
1.03121
1.03113
1.03046
1.03054
1.03061
1.03068
1.03073
1.03078
1.03082
1.03085
1.03087
1.03088
1.03088
1.03087
1.03085
1.03082
1.03078
1.03073
1.03068
1.03061
1.03054
1.03046
1.02984
1.02993
1.03
1.03007
1.03013
1.03018
1.03022
1.03025
1.03027
1.03028
1.03028
1.03027
1.03025
1.03022
1.03018
1.03013
1.03007
1.03
1.02993
1.02984
1.02928
1.02937
1.02945
1.02952
1.02959
1.02964
1.02968
1.02971
1.02973
1.02975
1.02975
1.02973
1.02971
1.02968
1.02964
1.02959
1.02952
1.02945
1.02937
1.02928
1.02878
1.02887
1.02896
1.02903
1.0291
1.02915
1.0292
1.02923
1.02925
1.02926
1.02926
1.02925
1.02923
1.0292
1.02915
1.0291
1.02903
1.02896
1.02887
1.02878
1.02833
1.02843
1.02852
1.0286
1.02866
1.02872
1.02877
1.02881
1.02883
1.02884
1.02884
1.02883
1.02881
1.02877
1.02872
1.02866
1.0286
1.02852
1.02843
1.02833
1.02793
1.02803
1.02813
1.02821
1.02829
1.02835
1.0284
1.02844
1.02846
1.02848
1.02848
1.02846
1.02844
1.0284
1.02835
1.02829
1.02821
1.02813
1.02803
1.02793
1.02758
1.0277
1.0278
1.02789
1.02796
1.02803
1.02808
1.02812
1.02815
1.02817
1.02817
1.02815
1.02812
1.02808
1.02803
1.02796
1.02789
1.0278
1.0277
1.02758
1.02729
1.02741
1.02752
1.02761
1.0277
1.02777
1.02782
1.02787
1.0279
1.02791
1.02791
1.0279
1.02787
1.02782
1.02777
1.0277
1.02761
1.02752
1.02741
1.02729
1.02705
1.02718
1.02729
1.02739
1.02748
1.02756
1.02762
1.02767
1.0277
1.02771
1.02771
1.0277
1.02767
1.02762
1.02756
1.02748
1.02739
1.02729
1.02718
1.02705
1.02686
1.02699
1.02712
1.02723
1.02733
1.02741
1.02747
1.02752
1.02756
1.02757
1.02757
1.02756
1.02752
1.02747
1.02741
1.02733
1.02723
1.02712
1.02699
1.02686
1.02672
1.02686
1.027
1.02712
1.02722
1.02731
1.02738
1.02744
1.02747
1.02749
1.02749
1.02747
1.02744
1.02738
1.02731
1.02722
1.02712
1.027
1.02686
1.02672
1.02663
1.02679
1.02693
1.02706
1.02717
1.02727
1.02735
1.02741
1.02744
1.02746
1.02746
1.02744
1.02741
1.02735
1.02727
1.02717
1.02706
1.02693
1.02679
1.02663
1.02659
1.02676
1.02692
1.02706
1.02718
1.02729
1.02737
1.02743
1.02748
1.0275
1.0275
1.02748
1.02743
1.02737
1.02729
1.02718
1.02706
1.02692
1.02676
1.02659
1.0266
1.02679
1.02696
1.02712
1.02725
1.02736
1.02745
1.02752
1.02757
1.02759
1.02759
1.02757
1.02752
1.02745
1.02736
1.02725
1.02712
1.02696
1.02679
1.0266
1.02667
1.02688
1.02706
1.02723
1.02738
1.0275
1.0276
1.02767
1.02772
1.02775
1.02775
1.02772
1.02767
1.0276
1.0275
1.02738
1.02723
1.02706
1.02688
1.02667
1.0268
1.02702
1.02723
1.02741
1.02757
1.0277
1.02781
1.02789
1.02794
1.02797
1.02797
1.02794
1.02789
1.02781
1.0277
1.02757
1.02741
1.02723
1.02702
1.0268
1.02698
1.02723
1.02745
1.02765
1.02782
1.02797
1.02808
1.02817
1.02823
1.02826
1.02826
1.02823
1.02817
1.02808
1.02797
1.02782
1.02765
1.02745
1.02723
1.02698
1.02723
1.0275
1.02774
1.02796
1.02815
1.02831
1.02843
1.02853
1.02859
1.02862
1.02862
1.02859
1.02853
1.02843
1.02831
1.02815
1.02796
1.02774
1.0275
1.02723
1.02754
1.02784
1.02811
1.02835
1.02855
1.02872
1.02886
1.02896
1.02903
1.02906
1.02906
1.02903
1.02896
1.02886
1.02872
1.02855
1.02835
1.02811
1.02784
1.02754
1.02793
1.02826
1.02855
1.02881
1.02903
1.02922
1.02937
1.02947
1.02955
1.02958
1.02958
1.02955
1.02947
1.02937
1.02922
1.02903
1.02881
1.02855
1.02826
1.02793
1.02839
1.02876
1.02908
1.02937
1.02961
1.0298
1.02996
1.03007
1.03015
1.03019
1.03019
1.03015
1.03007
1.02996
1.0298
1.02961
1.02937
1.02908
1.02876
1.02839
1.02895
1.02935
1.02971
1.03002
1.03027
1.03048
1.03065
1.03077
1.03085
1.03089
1.03089
1.03085
1.03077
1.03065
1.03048
1.03027
1.03002
1.02971
1.02935
1.02895
1.02961
1.03005
1.03044
1.03078
1.03105
1.03127
1.03144
1.03156
1.03164
1.03168
1.03168
1.03164
1.03156
1.03144
1.03127
1.03105
1.03078
1.03044
1.03005
1.02961
1.03038
1.03087
1.0313
1.03165
1.03194
1.03216
1.03233
1.03246
1.03253
1.03257
1.03257
1.03253
1.03246
1.03233
1.03216
1.03194
1.03165
1.0313
1.03087
1.03038
1.03129
1.03183
1.03229
1.03267
1.03296
1.03318
1.03334
1.03346
1.03353
1.03356
1.03356
1.03353
1.03346
1.03334
1.03318
1.03296
1.03267
1.03229
1.03183
1.03129
1.03235
1.03296
1.03345
1.03383
1.03412
1.03433
1.03447
1.03457
1.03463
1.03466
1.03466
1.03463
1.03457
1.03447
1.03433
1.03412
1.03383
1.03345
1.03296
1.03235
1.03361
1.03427
1.03479
1.03517
1.03543
1.03561
1.03572
1.03579
1.03583
1.03585
1.03585
1.03583
1.03579
1.03572
1.03561
1.03543
1.03517
1.03479
1.03427
1.03361
1.03511
1.03583
1.03636
1.0367
1.03692
1.03704
1.0371
1.03712
1.03712
1.03712
1.03712
1.03712
1.03712
1.0371
1.03704
1.03692
1.0367
1.03636
1.03583
1.03511
1.03692
1.0377
1.03819
1.03847
1.03858
1.03861
1.03858
1.03854
1.0385
1.03847
1.03847
1.0385
1.03854
1.03858
1.03861
1.03858
1.03847
1.03819
1.0377
1.03692
1.03916
1.03997
1.04037
1.04049
1.04044
1.04031
1.04016
1.04002
1.03992
1.03987
1.03987
1.03992
1.04002
1.04016
1.04031
1.04044
1.04049
1.04037
1.03997
1.03916
1.04201
1.04279
1.04297
1.0428
1.04247
1.04212
1.0418
1.04155
1.04137
1.04128
1.04128
1.04137
1.04155
1.0418
1.04212
1.04247
1.0428
1.04297
1.04279
1.04201
1.04586
1.04641
1.04607
1.04539
1.04465
1.04399
1.04346
1.04306
1.0428
1.04267
1.04267
1.0428
1.04306
1.04346
1.04399
1.04465
1.04539
1.04607
1.04641
1.04586
1.05159
1.05123
1.04974
1.04819
1.04687
1.04583
1.04506
1.04451
1.04416
1.04399
1.04399
1.04416
1.04451
1.04506
1.04583
1.04687
1.04819
1.04974
1.05123
1.05159
1.06164
1.05769
1.05381
1.05096
1.04894
1.04751
1.04651
1.04582
1.0454
1.0452
1.0452
1.0454
1.04582
1.04651
1.04751
1.04894
1.05096
1.05381
1.05769
1.06164
1.08459
1.06524
1.05739
1.05316
1.05056
1.04885
1.0477
1.04694
1.04647
1.04625
1.04625
1.04647
1.04694
1.0477
1.04885
1.05056
1.05316
1.05739
1.06524
1.08459
1.0343
1.03422
1.03414
1.03404
1.03395
1.03385
1.03375
1.03364
1.03354
1.03343
1.03332
1.0332
1.03309
1.03298
1.03287
1.03276
1.03265
1.03254
1.03243
1.03233
1.03223
1.03213
1.03203
1.03194
1.03185
1.03177
1.03169
1.03162
1.03155
1.03149
1.03143
1.03137
1.03133
1.03128
1.03125
1.03121
1.03119
1.03117
1.03116
1.03115
1.0334
1.03332
1.03323
1.03314
1.03304
1.03294
1.03284
1.03273
1.03262
1.03251
1.0324
1.03228
1.03217
1.03205
1.03194
1.03183
1.03171
1.0316
1.0315
1.03139
1.03129
1.03119
1.03109
1.031
1.03091
1.03083
1.03075
1.03068
1.03061
1.03054
1.03048
1.03043
1.03038
1.03034
1.0303
1.03027
1.03024
1.03022
1.03021
1.0302
1.03256
1.03247
1.03238
1.03229
1.03219
1.03209
1.03198
1.03187
1.03176
1.03164
1.03153
1.03141
1.03129
1.03118
1.03106
1.03095
1.03083
1.03072
1.03061
1.03051
1.0304
1.0303
1.0302
1.03011
1.03002
1.02994
1.02986
1.02978
1.02971
1.02964
1.02958
1.02953
1.02948
1.02944
1.0294
1.02937
1.02934
1.02932
1.02931
1.0293
1.03177
1.03169
1.03159
1.03149
1.03139
1.03128
1.03117
1.03106
1.03095
1.03083
1.03071
1.03059
1.03047
1.03035
1.03024
1.03012
1.03
1.02989
1.02978
1.02967
1.02956
1.02946
1.02936
1.02927
1.02917
1.02909
1.02901
1.02893
1.02886
1.02879
1.02873
1.02868
1.02863
1.02858
1.02854
1.02851
1.02849
1.02847
1.02845
1.02845
1.03104
1.03095
1.03086
1.03075
1.03065
1.03054
1.03042
1.03031
1.03019
1.03007
1.02995
1.02982
1.0297
1.02958
1.02946
1.02934
1.02922
1.0291
1.02899
1.02888
1.02877
1.02866
1.02856
1.02847
1.02837
1.02829
1.0282
1.02813
1.02805
1.02799
1.02792
1.02787
1.02782
1.02777
1.02773
1.0277
1.02767
1.02765
1.02764
1.02763
1.03037
1.03028
1.03017
1.03007
1.02996
1.02984
1.02973
1.02961
1.02948
1.02936
1.02923
1.02911
1.02898
1.02885
1.02873
1.02861
1.02848
1.02836
1.02825
1.02813
1.02802
1.02791
1.02781
1.02771
1.02762
1.02753
1.02744
1.02736
1.02729
1.02722
1.02716
1.0271
1.02705
1.027
1.02697
1.02693
1.02691
1.02688
1.02687
1.02686
1.02975
1.02965
1.02955
1.02944
1.02932
1.0292
1.02908
1.02896
1.02883
1.0287
1.02857
1.02844
1.02831
1.02818
1.02805
1.02792
1.02779
1.02767
1.02755
1.02743
1.02732
1.02721
1.0271
1.027
1.0269
1.02681
1.02673
1.02664
1.02657
1.0265
1.02643
1.02638
1.02632
1.02628
1.02624
1.0262
1.02618
1.02616
1.02614
1.02613
1.02919
1.02908
1.02897
1.02886
1.02874
1.02862
1.02849
1.02836
1.02822
1.02809
1.02795
1.02782
1.02768
1.02755
1.02741
1.02728
1.02715
1.02702
1.0269
1.02677
1.02666
1.02654
1.02643
1.02633
1.02623
1.02614
1.02605
1.02596
1.02589
1.02582
1.02575
1.02569
1.02564
1.02559
1.02555
1.02552
1.02549
1.02547
1.02545
1.02544
1.02868
1.02857
1.02845
1.02833
1.02821
1.02808
1.02794
1.02781
1.02767
1.02753
1.02739
1.02724
1.0271
1.02696
1.02682
1.02668
1.02655
1.02641
1.02628
1.02616
1.02604
1.02592
1.02581
1.0257
1.0256
1.0255
1.02541
1.02532
1.02524
1.02517
1.0251
1.02504
1.02499
1.02494
1.0249
1.02486
1.02483
1.02481
1.0248
1.02479
1.02822
1.02811
1.02799
1.02786
1.02773
1.02759
1.02745
1.0273
1.02716
1.02701
1.02686
1.02671
1.02657
1.02642
1.02627
1.02613
1.02599
1.02585
1.02571
1.02558
1.02546
1.02534
1.02522
1.02511
1.025
1.0249
1.02481
1.02472
1.02464
1.02456
1.02449
1.02443
1.02437
1.02432
1.02428
1.02425
1.02422
1.02419
1.02418
1.02417
1.02782
1.0277
1.02757
1.02743
1.02729
1.02715
1.027
1.02685
1.0267
1.02654
1.02638
1.02623
1.02607
1.02592
1.02576
1.02561
1.02547
1.02532
1.02518
1.02504
1.02491
1.02479
1.02467
1.02455
1.02444
1.02434
1.02424
1.02415
1.02406
1.02399
1.02391
1.02385
1.02379
1.02374
1.0237
1.02366
1.02363
1.02361
1.02359
1.02358
1.02746
1.02734
1.0272
1.02706
1.02691
1.02676
1.0266
1.02644
1.02628
1.02611
1.02595
1.02578
1.02562
1.02546
1.0253
1.02514
1.02498
1.02483
1.02468
1.02454
1.0244
1.02427
1.02415
1.02403
1.02391
1.0238
1.0237
1.02361
1.02352
1.02344
1.02337
1.0233
1.02324
1.02319
1.02315
1.02311
1.02308
1.02305
1.02304
1.02303
1.02716
1.02703
1.02688
1.02673
1.02657
1.02641
1.02624
1.02607
1.0259
1.02573
1.02555
1.02538
1.02521
1.02504
1.02487
1.0247
1.02454
1.02438
1.02422
1.02407
1.02393
1.02379
1.02366
1.02353
1.02342
1.0233
1.0232
1.0231
1.02301
1.02293
1.02285
1.02278
1.02272
1.02267
1.02262
1.02258
1.02255
1.02253
1.02251
1.0225
1.02691
1.02676
1.02661
1.02645
1.02628
1.02611
1.02593
1.02575
1.02557
1.02538
1.0252
1.02502
1.02483
1.02465
1.02447
1.0243
1.02412
1.02396
1.02379
1.02364
1.02349
1.02334
1.0232
1.02307
1.02295
1.02283
1.02272
1.02262
1.02253
1.02244
1.02236
1.02229
1.02223
1.02217
1.02212
1.02208
1.02205
1.02203
1.02201
1.022
1.02671
1.02655
1.02638
1.02621
1.02603
1.02585
1.02566
1.02547
1.02527
1.02508
1.02488
1.02469
1.02449
1.0243
1.02411
1.02392
1.02374
1.02357
1.02339
1.02323
1.02307
1.02292
1.02277
1.02264
1.02251
1.02239
1.02227
1.02217
1.02207
1.02198
1.0219
1.02182
1.02176
1.0217
1.02165
1.02161
1.02158
1.02155
1.02153
1.02153
1.02656
1.02639
1.02621
1.02602
1.02583
1.02563
1.02543
1.02523
1.02502
1.02481
1.0246
1.02439
1.02419
1.02398
1.02378
1.02358
1.02339
1.0232
1.02302
1.02285
1.02268
1.02252
1.02237
1.02223
1.02209
1.02196
1.02185
1.02174
1.02163
1.02154
1.02146
1.02138
1.02131
1.02125
1.0212
1.02116
1.02113
1.0211
1.02108
1.02107
1.02645
1.02627
1.02608
1.02588
1.02567
1.02546
1.02524
1.02502
1.0248
1.02458
1.02436
1.02413
1.02391
1.0237
1.02348
1.02327
1.02307
1.02287
1.02268
1.02249
1.02232
1.02215
1.02199
1.02184
1.0217
1.02157
1.02144
1.02133
1.02122
1.02112
1.02104
1.02096
1.02089
1.02083
1.02077
1.02073
1.02069
1.02067
1.02065
1.02064
1.0264
1.0262
1.02599
1.02577
1.02555
1.02532
1.02509
1.02485
1.02462
1.02438
1.02414
1.0239
1.02367
1.02344
1.02321
1.02299
1.02277
1.02256
1.02236
1.02216
1.02198
1.0218
1.02163
1.02148
1.02133
1.02119
1.02106
1.02094
1.02083
1.02073
1.02064
1.02055
1.02048
1.02042
1.02036
1.02032
1.02028
1.02026
1.02024
1.02023
1.0264
1.02618
1.02595
1.02572
1.02548
1.02523
1.02498
1.02472
1.02447
1.02421
1.02396
1.0237
1.02345
1.0232
1.02296
1.02272
1.02249
1.02227
1.02206
1.02185
1.02166
1.02147
1.02129
1.02113
1.02097
1.02083
1.02069
1.02057
1.02045
1.02035
1.02025
1.02017
1.02009
1.02003
1.01997
1.01993
1.01989
1.01986
1.01984
1.01983
1.02645
1.02621
1.02596
1.02571
1.02544
1.02517
1.0249
1.02462
1.02435
1.02407
1.0238
1.02353
1.02326
1.02299
1.02274
1.02248
1.02224
1.022
1.02178
1.02156
1.02135
1.02116
1.02097
1.0208
1.02064
1.02048
1.02034
1.02021
1.02009
1.01998
1.01989
1.0198
1.01972
1.01965
1.01959
1.01955
1.01951
1.01948
1.01946
1.01945
1.02655
1.02629
1.02602
1.02574
1.02545
1.02515
1.02486
1.02456
1.02426
1.02396
1.02367
1.02338
1.02309
1.02281
1.02253
1.02226
1.022
1.02175
1.02151
1.02128
1.02107
1.02086
1.02067
1.02048
1.02031
1.02015
1.02001
1.01987
1.01975
1.01963
1.01953
1.01944
1.01936
1.01929
1.01923
1.01918
1.01914
1.01911
1.01909
1.01908
1.02671
1.02643
1.02613
1.02582
1.0255
1.02518
1.02485
1.02453
1.0242
1.02388
1.02356
1.02325
1.02294
1.02264
1.02234
1.02206
1.02178
1.02152
1.02126
1.02102
1.02079
1.02058
1.02037
1.02018
1.02
1.01984
1.01968
1.01954
1.01941
1.0193
1.01919
1.0191
1.01901
1.01894
1.01888
1.01883
1.01879
1.01876
1.01874
1.01873
1.02693
1.02662
1.02628
1.02594
1.02559
1.02524
1.02488
1.02453
1.02417
1.02382
1.02348
1.02314
1.02281
1.02249
1.02217
1.02187
1.02158
1.0213
1.02103
1.02077
1.02053
1.0203
1.02009
1.01989
1.0197
1.01953
1.01937
1.01922
1.01909
1.01897
1.01886
1.01876
1.01868
1.0186
1.01854
1.01849
1.01844
1.01841
1.01839
1.01838
1.02721
1.02686
1.0265
1.02612
1.02573
1.02534
1.02494
1.02455
1.02417
1.02379
1.02342
1.02305
1.02269
1.02235
1.02201
1.02169
1.02138
1.02108
1.0208
1.02053
1.02028
1.02004
1.01982
1.01961
1.01941
1.01923
1.01907
1.01891
1.01878
1.01865
1.01854
1.01844
1.01835
1.01827
1.01821
1.01815
1.01811
1.01808
1.01806
1.01805
1.02756
1.02718
1.02677
1.02634
1.02591
1.02547
1.02504
1.02461
1.02419
1.02377
1.02337
1.02298
1.02259
1.02222
1.02187
1.02152
1.02119
1.02088
1.02058
1.0203
1.02003
1.01978
1.01955
1.01933
1.01913
1.01894
1.01877
1.01861
1.01847
1.01834
1.01822
1.01812
1.01803
1.01795
1.01788
1.01782
1.01778
1.01775
1.01773
1.01772
1.02799
1.02756
1.0271
1.02662
1.02614
1.02565
1.02517
1.0247
1.02423
1.02378
1.02334
1.02291
1.0225
1.02211
1.02173
1.02136
1.02101
1.02068
1.02037
1.02007
1.01979
1.01953
1.01929
1.01906
1.01885
1.01866
1.01848
1.01831
1.01817
1.01803
1.01791
1.0178
1.01771
1.01763
1.01756
1.0175
1.01746
1.01743
1.0174
1.01739
1.0285
1.02802
1.0275
1.02697
1.02642
1.02587
1.02533
1.02481
1.02429
1.0238
1.02332
1.02286
1.02242
1.022
1.02159
1.0212
1.02084
1.02049
1.02016
1.01985
1.01956
1.01929
1.01903
1.01879
1.01858
1.01837
1.01819
1.01802
1.01787
1.01773
1.01761
1.0175
1.0174
1.01732
1.01725
1.01719
1.01714
1.01711
1.01709
1.01708
1.02911
1.02856
1.02798
1.02737
1.02675
1.02614
1.02553
1.02494
1.02438
1.02383
1.02331
1.02281
1.02234
1.02189
1.02146
1.02105
1.02066
1.0203
1.01995
1.01963
1.01932
1.01904
1.01878
1.01853
1.0183
1.01809
1.0179
1.01773
1.01757
1.01743
1.0173
1.01719
1.01709
1.01701
1.01694
1.01688
1.01683
1.01679
1.01677
1.01676
1.02982
1.0292
1.02854
1.02785
1.02715
1.02645
1.02576
1.02511
1.02448
1.02388
1.02331
1.02277
1.02226
1.02178
1.02132
1.02089
1.02048
1.0201
1.01974
1.0194
1.01909
1.01879
1.01852
1.01827
1.01803
1.01782
1.01762
1.01744
1.01728
1.01713
1.017
1.01689
1.01679
1.0167
1.01663
1.01657
1.01652
1.01648
1.01646
1.01645
1.03066
1.02996
1.0292
1.02841
1.0276
1.0268
1.02603
1.02529
1.02459
1.02393
1.02331
1.02273
1.02218
1.02167
1.02119
1.02073
1.0203
1.0199
1.01953
1.01918
1.01885
1.01854
1.01826
1.018
1.01776
1.01754
1.01734
1.01715
1.01698
1.01683
1.0167
1.01658
1.01648
1.01639
1.01632
1.01626
1.01621
1.01617
1.01615
1.01614
1.03164
1.03084
1.02996
1.02905
1.02812
1.02721
1.02633
1.02549
1.02471
1.02398
1.02331
1.02268
1.0221
1.02155
1.02104
1.02056
1.02011
1.0197
1.01931
1.01894
1.01861
1.01829
1.018
1.01773
1.01748
1.01726
1.01705
1.01686
1.01669
1.01654
1.0164
1.01628
1.01618
1.01609
1.01601
1.01595
1.0159
1.01587
1.01584
1.01583
1.03281
1.03188
1.03086
1.02979
1.02871
1.02766
1.02665
1.02571
1.02484
1.02404
1.0233
1.02262
1.022
1.02142
1.02088
1.02038
1.01992
1.01948
1.01908
1.01871
1.01836
1.01803
1.01774
1.01746
1.01721
1.01697
1.01676
1.01657
1.0164
1.01624
1.0161
1.01598
1.01587
1.01578
1.01571
1.01564
1.01559
1.01556
1.01553
1.01552
1.03419
1.0331
1.03189
1.03063
1.02937
1.02815
1.027
1.02593
1.02496
1.02408
1.02328
1.02255
1.02188
1.02127
1.02071
1.02019
1.01971
1.01926
1.01884
1.01846
1.0181
1.01777
1.01747
1.01718
1.01693
1.01669
1.01647
1.01628
1.0161
1.01594
1.0158
1.01568
1.01557
1.01548
1.0154
1.01534
1.01529