/*--------------------------------*- C++ -*----------------------------------*\
  =========                 |
  \\      /  F ield         | OpenFOAM: The Open Source CFD Toolbox
   \\    /   O peration     | Website:  https://openfoam.org
    \\  /    A nd           | Version:  6
     \\/     M anipulation  |
\*---------------------------------------------------------------------------*/
FoamFile
{
    version     2.0;
    format      ascii;
    class       volScalarField;
    location    "30";
    object      p;
}
// * * * * * * * * * * * * * * * * * * * * * * * * * * * * * * * * * * * * * //

dimensions      [0 2 -2 0 0 0 0];

internalField   nonuniform List<scalar> 
8800
(
2.77114e-10
3.90055e-07
6.1802e-07
7.10432e-07
7.48236e-07
7.64577e-07
7.7045e-07
7.70234e-07
7.66496e-07
7.60691e-07
7.53662e-07
7.45958e-07
7.37981e-07
7.30053e-07
7.22434e-07
7.15336e-07
7.08914e-07
7.03262e-07
6.98391e-07
6.94209e-07
6.90521e-07
6.87117e-07
6.83929e-07
6.79631e-07
6.72797e-07
6.61852e-07
6.44948e-07
6.2009e-07
5.85398e-07
5.3938e-07
4.81249e-07
4.11196e-07
3.30629e-07
2.43102e-07
1.51332e-07
5.83979e-08
-3.29468e-08
-1.23001e-07
-2.11239e-07
-2.96489e-07
-1.90618e-05
-1.92813e-05
-1.93755e-05
-1.94094e-05
-1.94344e-05
-1.94608e-05
-1.94904e-05
-1.9524e-05
-1.95617e-05
-1.96032e-05
-1.96478e-05
-1.96952e-05
-1.97447e-05
-1.97958e-05
-1.98482e-05
-1.99012e-05
-1.99544e-05
-2.00075e-05
-2.00601e-05
-2.01118e-05
-2.01624e-05
-2.02119e-05
-2.0261e-05
-2.03097e-05
-2.03586e-05
-2.04087e-05
-2.04611e-05
-2.05174e-05
-2.05792e-05
-2.06479e-05
-2.07245e-05
-2.08094e-05
-2.09025e-05
-2.10038e-05
-2.11116e-05
-2.12246e-05
-2.13405e-05
-2.14557e-05
-2.15676e-05
-2.16744e-05
-3.45927e-05
-3.46773e-05
-3.47242e-05
-3.47533e-05
-3.47847e-05
-3.48216e-05
-3.48641e-05
-3.49118e-05
-3.49648e-05
-3.50228e-05
-3.50855e-05
-3.51525e-05
-3.52234e-05
-3.52976e-05
-3.53747e-05
-3.54542e-05
-3.55356e-05
-3.56183e-05
-3.57022e-05
-3.57868e-05
-3.58719e-05
-3.59578e-05
-3.60451e-05
-3.61335e-05
-3.62232e-05
-3.63148e-05
-3.64091e-05
-3.65072e-05
-3.66099e-05
-3.6718e-05
-3.68319e-05
-3.69515e-05
-3.7076e-05
-3.72043e-05
-3.73346e-05
-3.74646e-05
-3.75927e-05
-3.77177e-05
-3.78383e-05
-3.79537e-05
-4.79021e-05
-4.79139e-05
-4.7929e-05
-4.79552e-05
-4.79928e-05
-4.80397e-05
-4.80949e-05
-4.81578e-05
-4.82282e-05
-4.83057e-05
-4.83898e-05
-4.84802e-05
-4.85762e-05
-4.86774e-05
-4.87832e-05
-4.88929e-05
-4.90059e-05
-4.91218e-05
-4.92398e-05
-4.93596e-05
-4.94808e-05
-4.96031e-05
-4.97261e-05
-4.98498e-05
-4.99742e-05
-5.00996e-05
-5.02265e-05
-5.03555e-05
-5.04874e-05
-5.06227e-05
-5.07615e-05
-5.09038e-05
-5.1049e-05
-5.1196e-05
-5.13435e-05
-5.14899e-05
-5.16336e-05
-5.17733e-05
-5.19076e-05
-5.20356e-05
-6.01588e-05
-6.01832e-05
-6.02117e-05
-6.02501e-05
-6.03001e-05
-6.03609e-05
-6.04319e-05
-6.05127e-05
-6.0603e-05
-6.07022e-05
-6.08099e-05
-6.09255e-05
-6.10484e-05
-6.1178e-05
-6.13135e-05
-6.14542e-05
-6.15992e-05
-6.1748e-05
-6.18996e-05
-6.20535e-05
-6.22089e-05
-6.23651e-05
-6.25212e-05
-6.26767e-05
-6.28315e-05
-6.29857e-05
-6.31397e-05
-6.32939e-05
-6.34489e-05
-6.36051e-05
-6.37631e-05
-6.3923e-05
-6.40844e-05
-6.42468e-05
-6.4409e-05
-6.45699e-05
-6.47281e-05
-6.4882e-05
-6.50305e-05
-6.51719e-05
-7.14123e-05
-7.14512e-05
-7.14911e-05
-7.15391e-05
-7.15994e-05
-7.16721e-05
-7.1757e-05
-7.18537e-05
-7.19617e-05
-7.20804e-05
-7.22094e-05
-7.23479e-05
-7.24951e-05
-7.26504e-05
-7.28128e-05
-7.29814e-05
-7.31554e-05
-7.33338e-05
-7.35157e-05
-7.37002e-05
-7.38865e-05
-7.40735e-05
-7.42597e-05
-7.44444e-05
-7.46271e-05
-7.48078e-05
-7.49866e-05
-7.51637e-05
-7.53398e-05
-7.55155e-05
-7.56915e-05
-7.58681e-05
-7.60455e-05
-7.62234e-05
-7.64009e-05
-7.6577e-05
-7.67501e-05
-7.69189e-05
-7.70818e-05
-7.7237e-05
-8.1679e-05
-8.17223e-05
-8.17673e-05
-8.18218e-05
-8.18907e-05
-8.19741e-05
-8.20717e-05
-8.2183e-05
-8.23075e-05
-8.24445e-05
-8.25933e-05
-8.27532e-05
-8.29232e-05
-8.31025e-05
-8.32901e-05
-8.34849e-05
-8.36859e-05
-8.38919e-05
-8.41018e-05
-8.43147e-05
-8.45294e-05
-8.47444e-05
-8.49579e-05
-8.51686e-05
-8.53761e-05
-8.558e-05
-8.57801e-05
-8.59769e-05
-8.61707e-05
-8.63626e-05
-8.65533e-05
-8.67438e-05
-8.69346e-05
-8.71258e-05
-8.73168e-05
-8.75066e-05
-8.76938e-05
-8.78767e-05
-8.80534e-05
-8.82221e-05
-9.10358e-05
-9.10807e-05
-9.11292e-05
-9.11895e-05
-9.12664e-05
-9.13598e-05
-9.14693e-05
-9.15943e-05
-9.17342e-05
-9.18882e-05
-9.20556e-05
-9.22354e-05
-9.24267e-05
-9.26283e-05
-9.28391e-05
-9.3058e-05
-9.32837e-05
-9.3515e-05
-9.37504e-05
-9.39889e-05
-9.42292e-05
-9.44691e-05
-9.47062e-05
-9.49395e-05
-9.51681e-05
-9.53914e-05
-9.56092e-05
-9.58217e-05
-9.60296e-05
-9.62338e-05
-9.64359e-05
-9.6637e-05
-9.68382e-05
-9.704e-05
-9.72422e-05
-9.74438e-05
-9.76433e-05
-9.78389e-05
-9.80285e-05
-9.82099e-05
-9.9559e-05
-9.96046e-05
-9.96562e-05
-9.97218e-05
-9.98058e-05
-9.99081e-05
-0.000100028
-0.000100166
-0.000100319
-0.000100489
-0.000100673
-0.00010087
-0.000101081
-0.000101302
-0.000101534
-0.000101774
-0.000102022
-0.000102275
-0.000102533
-0.000102794
-0.000103056
-0.000103317
-0.000103574
-0.000103826
-0.000104072
-0.000104311
-0.000104543
-0.000104768
-0.000104986
-0.0001052
-0.00010541
-0.000105619
-0.000105828
-0.000106038
-0.000106249
-0.00010646
-0.00010667
-0.000106877
-0.000107078
-0.000107271
-0.000107316
-0.000107361
-0.000107415
-0.000107485
-0.000107575
-0.000107685
-0.000107814
-0.000107962
-0.000108128
-0.000108311
-0.000108509
-0.000108722
-0.000108949
-0.000109188
-0.000109437
-0.000109696
-0.000109962
-0.000110234
-0.000110511
-0.000110791
-0.000111072
-0.00011135
-0.000111623
-0.000111891
-0.00011215
-0.000112402
-0.000112644
-0.000112878
-0.000113103
-0.000113323
-0.000113538
-0.000113752
-0.000113966
-0.000114182
-0.000114399
-0.000114618
-0.000114836
-0.000115053
-0.000115264
-0.000115468
-0.000114368
-0.000114412
-0.000114467
-0.00011454
-0.000114636
-0.000114752
-0.000114889
-0.000115046
-0.000115222
-0.000115415
-0.000115626
-0.000115852
-0.000116092
-0.000116345
-0.000116609
-0.000116883
-0.000117165
-0.000117453
-0.000117745
-0.000118041
-0.000118336
-0.000118627
-0.000118913
-0.000119192
-0.000119462
-0.000119722
-0.000119971
-0.00012021
-0.00012044
-0.000120663
-0.000120882
-0.000121098
-0.000121314
-0.000121533
-0.000121754
-0.000121978
-0.000122203
-0.000122427
-0.000122647
-0.00012286
-0.000120771
-0.000120813
-0.000120869
-0.000120945
-0.000121044
-0.000121166
-0.000121309
-0.000121473
-0.000121657
-0.000121859
-0.000122079
-0.000122315
-0.000122566
-0.000122831
-0.000123106
-0.000123392
-0.000123686
-0.000123986
-0.000124291
-0.000124597
-0.000124903
-0.000125204
-0.000125499
-0.000125785
-0.000126062
-0.000126327
-0.000126581
-0.000126823
-0.000127055
-0.000127279
-0.000127497
-0.000127713
-0.000127929
-0.000128148
-0.000128371
-0.000128599
-0.00012883
-0.000129059
-0.000129285
-0.000129504
-0.00012658
-0.000126619
-0.000126675
-0.000126753
-0.000126855
-0.00012698
-0.000127127
-0.000127296
-0.000127486
-0.000127695
-0.000127922
-0.000128165
-0.000128424
-0.000128696
-0.000128981
-0.000129275
-0.000129578
-0.000129886
-0.000130199
-0.000130514
-0.000130827
-0.000131133
-0.000131433
-0.000131724
-0.000132005
-0.000132272
-0.000132527
-0.00013277
-0.000133001
-0.000133223
-0.000133438
-0.000133651
-0.000133865
-0.000134084
-0.000134308
-0.000134538
-0.00013477
-0.000135003
-0.000135232
-0.000135454
-0.000131841
-0.000131876
-0.000131932
-0.000132011
-0.000132114
-0.000132241
-0.000132391
-0.000132564
-0.000132757
-0.00013297
-0.000133201
-0.00013345
-0.000133714
-0.000133991
-0.000134281
-0.000134581
-0.000134889
-0.000135203
-0.000135521
-0.00013584
-0.000136155
-0.000136465
-0.000136767
-0.000137059
-0.00013734
-0.000137608
-0.000137861
-0.000138102
-0.000138329
-0.000138546
-0.000138757
-0.000138965
-0.000139176
-0.000139392
-0.000139615
-0.000139845
-0.000140077
-0.00014031
-0.000140539
-0.000140759
-0.000136599
-0.000136631
-0.000136685
-0.000136764
-0.000136868
-0.000136996
-0.000137147
-0.00013732
-0.000137515
-0.00013773
-0.000137963
-0.000138214
-0.00013848
-0.00013876
-0.000139052
-0.000139354
-0.000139665
-0.000139981
-0.000140301
-0.00014062
-0.000140935
-0.000141245
-0.000141547
-0.000141838
-0.000142117
-0.000142382
-0.000142631
-0.000142866
-0.000143087
-0.000143297
-0.000143502
-0.000143704
-0.00014391
-0.000144123
-0.000144343
-0.000144569
-0.000144799
-0.000145028
-0.000145252
-0.000145466
-0.000140895
-0.000140923
-0.000140976
-0.000141054
-0.000141157
-0.000141284
-0.000141435
-0.000141608
-0.000141802
-0.000142017
-0.00014225
-0.0001425
-0.000142766
-0.000143045
-0.000143337
-0.000143639
-0.000143949
-0.000144265
-0.000144584
-0.000144901
-0.000145213
-0.00014552
-0.000145819
-0.000146106
-0.00014638
-0.000146638
-0.00014688
-0.000147107
-0.00014732
-0.000147522
-0.000147719
-0.000147915
-0.000148115
-0.000148321
-0.000148536
-0.000148756
-0.000148979
-0.0001492
-0.000149414
-0.000149615
-0.000144767
-0.000144792
-0.000144842
-0.000144918
-0.00014502
-0.000145145
-0.000145294
-0.000145465
-0.000145657
-0.000145869
-0.000146099
-0.000146347
-0.00014661
-0.000146887
-0.000147176
-0.000147475
-0.000147782
-0.000148095
-0.00014841
-0.000148721
-0.000149029
-0.000149331
-0.000149623
-0.000149903
-0.000150169
-0.000150419
-0.000150652
-0.000150869
-0.000151072
-0.000151265
-0.000151453
-0.00015164
-0.000151832
-0.000152031
-0.000152238
-0.000152449
-0.00015266
-0.000152867
-0.000153064
-0.000153241
-0.00014825
-0.000148272
-0.00014832
-0.000148394
-0.000148492
-0.000148615
-0.00014876
-0.000148927
-0.000149115
-0.000149323
-0.000149549
-0.000149792
-0.00015005
-0.000150322
-0.000150606
-0.0001509
-0.000151202
-0.000151509
-0.000151816
-0.00015212
-0.000152421
-0.000152714
-0.000152998
-0.000153269
-0.000153525
-0.000153764
-0.000153986
-0.000154192
-0.000154385
-0.000154567
-0.000154744
-0.000154922
-0.000155104
-0.000155293
-0.000155488
-0.000155685
-0.000155879
-0.000156064
-0.000156233
-0.000156375
-0.000151378
-0.000151396
-0.000151442
-0.000151513
-0.000151608
-0.000151726
-0.000151867
-0.000152029
-0.000152212
-0.000152413
-0.000152633
-0.000152869
-0.00015312
-0.000153385
-0.000153662
-0.000153948
-0.000154243
-0.000154541
-0.000154838
-0.000155133
-0.000155424
-0.000155708
-0.000155981
-0.000156241
-0.000156485
-0.000156712
-0.000156922
-0.000157116
-0.000157296
-0.000157466
-0.000157632
-0.000157799
-0.000157969
-0.000158145
-0.000158323
-0.0001585
-0.000158669
-0.000158823
-0.000158951
-0.000159044
-0.000154181
-0.000154196
-0.000154239
-0.000154306
-0.000154397
-0.000154511
-0.000154646
-0.000154801
-0.000154977
-0.00015517
-0.000155382
-0.000155609
-0.000155851
-0.000156107
-0.000156375
-0.000156652
-0.000156936
-0.000157223
-0.000157509
-0.000157794
-0.000158074
-0.000158346
-0.000158606
-0.000158853
-0.000159084
-0.000159298
-0.000159494
-0.000159674
-0.000159841
-0.000159999
-0.000160153
-0.000160306
-0.000160462
-0.00016062
-0.000160777
-0.000160925
-0.000161058
-0.000161167
-0.00016124
-0.000161272
-0.000156687
-0.000156699
-0.000156739
-0.000156803
-0.00015689
-0.000156997
-0.000157125
-0.000157273
-0.00015744
-0.000157624
-0.000157826
-0.000158043
-0.000158274
-0.000158519
-0.000158776
-0.000159041
-0.000159313
-0.000159587
-0.000159861
-0.000160133
-0.0001604
-0.000160658
-0.000160905
-0.000161138
-0.000161355
-0.000161554
-0.000161736
-0.000161902
-0.000162055
-0.000162199
-0.000162339
-0.000162477
-0.000162615
-0.00016275
-0.000162877
-0.000162987
-0.000163071
-0.000163119
-0.000163118
-0.000163072
-0.000158922
-0.000158933
-0.00015897
-0.00015903
-0.000159111
-0.000159212
-0.000159333
-0.000159472
-0.000159628
-0.000159802
-0.000159992
-0.000160197
-0.000160416
-0.000160648
-0.000160892
-0.000161144
-0.000161401
-0.000161661
-0.000161922
-0.00016218
-0.000162433
-0.000162676
-0.000162908
-0.000163126
-0.000163327
-0.000163511
-0.000163678
-0.000163829
-0.000163968
-0.000164098
-0.000164222
-0.000164342
-0.000164457
-0.000164563
-0.000164649
-0.000164707
-0.000164725
-0.00016469
-0.000164593
-0.00016445
-0.000160913
-0.000160921
-0.000160956
-0.000161012
-0.000161087
-0.000161181
-0.000161293
-0.000161422
-0.000161567
-0.000161729
-0.000161906
-0.000162097
-0.000162303
-0.00016252
-0.000162749
-0.000162986
-0.000163228
-0.000163473
-0.000163719
-0.000163962
-0.000164199
-0.000164428
-0.000164644
-0.000164845
-0.00016503
-0.000165198
-0.000165349
-0.000165485
-0.000165609
-0.000165723
-0.000165829
-0.000165927
-0.000166013
-0.000166079
-0.000166112
-0.000166099
-0.000166028
-0.000165885
-0.000165669
-0.000165402
-0.00016268
-0.000162688
-0.00016272
-0.000162771
-0.000162841
-0.000162927
-0.000163029
-0.000163147
-0.000163281
-0.000163429
-0.000163591
-0.000163767
-0.000163957
-0.000164159
-0.000164371
-0.000164591
-0.000164817
-0.000165047
-0.000165277
-0.000165505
-0.000165726
-0.000165938
-0.000166138
-0.000166323
-0.000166491
-0.000166642
-0.000166777
-0.000166897
-0.000167004
-0.000167099
-0.000167184
-0.000167255
-0.000167304
-0.000167317
-0.000167279
-0.000167174
-0.000166987
-0.000166705
-0.000166338
-0.000165915
-0.000164247
-0.000164254
-0.000164283
-0.00016433
-0.000164393
-0.000164471
-0.000164563
-0.00016467
-0.00016479
-0.000164923
-0.00016507
-0.000165229
-0.000165401
-0.000165586
-0.000165781
-0.000165984
-0.000166194
-0.000166407
-0.000166622
-0.000166833
-0.000167038
-0.000167234
-0.000167417
-0.000167585
-0.000167736
-0.000167869
-0.000167986
-0.000168088
-0.000168176
-0.000168251
-0.000168309
-0.000168345
-0.000168344
-0.000168288
-0.000168157
-0.00016793
-0.000167593
-0.000167135
-0.00016658
-0.000165962
-0.000165632
-0.000165639
-0.000165666
-0.000165709
-0.000165765
-0.000165834
-0.000165916
-0.000166009
-0.000166115
-0.000166232
-0.000166362
-0.000166503
-0.000166658
-0.000166825
-0.000167001
-0.000167187
-0.00016738
-0.000167578
-0.000167776
-0.000167972
-0.000168161
-0.000168341
-0.000168507
-0.000168657
-0.000168789
-0.000168904
-0.000169001
-0.000169082
-0.000169148
-0.000169196
-0.000169221
-0.00016921
-0.000169144
-0.000168997
-0.000168743
-0.000168358
-0.000167827
-0.000167151
-0.000166364
-0.000165505
-0.000166854
-0.000166862
-0.000166887
-0.000166925
-0.000166975
-0.000167034
-0.000167105
-0.000167185
-0.000167275
-0.000167376
-0.000167487
-0.00016761
-0.000167746
-0.000167894
-0.000168053
-0.000168222
-0.000168398
-0.00016858
-0.000168764
-0.000168945
-0.000169119
-0.000169282
-0.000169431
-0.000169562
-0.000169675
-0.000169768
-0.000169843
-0.0001699
-0.000169938
-0.000169952
-0.000169933
-0.000169862
-0.00016971
-0.000169445
-0.000169033
-0.000168448
-0.000167672
-0.000166724
-0.000165647
-0.000164492
-0.000167932
-0.00016794
-0.000167963
-0.000167997
-0.000168039
-0.00016809
-0.000168148
-0.000168214
-0.000168288
-0.000168371
-0.000168463
-0.000168568
-0.000168685
-0.000168814
-0.000168955
-0.000169108
-0.000169271
-0.000169439
-0.00016961
-0.000169777
-0.000169937
-0.000170084
-0.000170215
-0.000170326
-0.000170417
-0.000170486
-0.000170534
-0.000170561
-0.000170564
-0.000170535
-0.000170459
-0.000170307
-0.000170042
-0.000169622
-0.000169006
-0.000168167
-0.000167088
-0.000165805
-0.000164372
-0.000162855
-0.000168881
-0.00016889
-0.000168911
-0.00016894
-0.000168975
-0.000169016
-0.000169062
-0.000169114
-0.000169171
-0.000169235
-0.000169309
-0.000169394
-0.000169492
-0.000169604
-0.00016973
-0.00016987
-0.00017002
-0.000170178
-0.000170338
-0.000170493
-0.00017064
-0.000170771
-0.000170883
-0.000170973
-0.000171039
-0.000171079
-0.000171095
-0.000171084
-0.000171043
-0.000170958
-0.000170806
-0.000170549
-0.000170138
-0.000169519
-0.000168642
-0.000167479
-0.000166029
-0.000164336
-0.00016247
-0.000160512
-0.000169717
-0.000169727
-0.000169746
-0.00016977
-0.000169798
-0.000169829
-0.000169862
-0.000169898
-0.000169937
-0.000169983
-0.000170039
-0.000170105
-0.000170186
-0.000170283
-0.000170398
-0.000170528
-0.000170671
-0.000170822
-0.000170973
-0.000171119
-0.000171253
-0.000171369
-0.000171461
-0.000171527
-0.000171563
-0.00017157
-0.000171546
-0.00017149
-0.000171392
-0.000171234
-0.000170984
-0.000170592
-0.000169993
-0.000169121
-0.000167925
-0.000166359
-0.00016445
-0.000162257
-0.000159861
-0.000157371
-0.000170454
-0.000170465
-0.000170481
-0.0001705
-0.000170521
-0.000170542
-0.000170563
-0.000170583
-0.000170604
-0.000170632
-0.000170669
-0.000170718
-0.000170786
-0.000170873
-0.000170982
-0.000171108
-0.000171248
-0.000171395
-0.000171542
-0.000171681
-0.000171804
-0.000171903
-0.000171974
-0.000172012
-0.000172015
-0.000171981
-0.00017191
-0.000171796
-0.000171627
-0.000171378
-0.000171003
-0.000170437
-0.0001696
-0.000168408
-0.00016681
-0.00016476
-0.000162297
-0.000159495
-0.00015646
-0.000153326
-0.000171107
-0.000171118
-0.000171131
-0.000171145
-0.000171158
-0.000171168
-0.000171176
-0.000171179
-0.000171184
-0.000171194
-0.000171214
-0.000171251
-0.000171311
-0.000171395
-0.000171504
-0.000171633
-0.000171776
-0.000171925
-0.000172072
-0.000172205
-0.000172317
-0.0001724
-0.000172447
-0.000172454
-0.000172418
-0.000172337
-0.000172208
-0.000172025
-0.000171768
-0.000171404
-0.000170873
-0.000170092
-0.000168962
-0.00016739
-0.000165285
-0.000162647
-0.000159516
-0.000155983
-0.000152176
-0.000148269
-0.000171686
-0.000171697
-0.000171708
-0.000171716
-0.00017172
-0.000171719
-0.000171711
-0.000171699
-0.000171688
-0.000171682
-0.000171691
-0.000171723
-0.000171783
-0.000171872
-0.000171989
-0.000172128
-0.000172281
-0.000172438
-0.000172587
-0.000172718
-0.000172821
-0.000172886
-0.000172907
-0.000172878
-0.000172797
-0.000172661
-0.000172465
-0.000172199
-0.000171837
-0.000171333
-0.000170611
-0.000169566
-0.000168074
-0.000166036
-0.000163345
-0.000160006
-0.000156079
-0.000151673
-0.000146935
-0.000142131
-0.000172204
-0.000172215
-0.000172222
-0.000172223
-0.000172219
-0.000172206
-0.000172181
-0.000172154
-0.000172127
-0.000172112
-0.000172117
-0.000172153
-0.000172223
-0.000172327
-0.000172463
-0.00017262
-0.00017279
-0.000172959
-0.000173115
-0.000173246
-0.000173339
-0.000173386
-0.000173378
-0.000173311
-0.000173179
-0.00017298
-0.000172707
-0.000172344
-0.000171859
-0.00017119
-0.000170242
-0.000168887
-0.000166981
-0.000164367
-0.000160987
-0.000156833
-0.000151976
-0.000146544
-0.000140747
-0.000134907
-0.000172673
-0.000172681
-0.000172684
-0.000172678
-0.000172663
-0.000172634
-0.000172597
-0.000172555
-0.000172518
-0.0001725
-0.000172512
-0.000172562
-0.000172654
-0.000172785
-0.000172948
-0.000173134
-0.000173327
-0.000173514
-0.000173681
-0.000173813
-0.000173898
-0.000173925
-0.000173887
-0.000173776
-0.00017359
-0.000173321
-0.000172962
-0.000172491
-0.000171864
-0.000171006
-0.000169797
-0.000168081
-0.000165691
-0.000162445
-0.000158276
-0.000153187
-0.000147282
-0.000140691
-0.000133719
-0.000126577
-0.0001731
-0.000173106
-0.000173103
-0.000173088
-0.000173061
-0.000173016
-0.000172965
-0.000172913
-0.000172874
-0.000172864
-0.000172894
-0.000172973
-0.0001731
-0.000173269
-0.000173472
-0.000173693
-0.000173917
-0.000174128
-0.000174308
-0.000174444
-0.000174521
-0.000174528
-0.000174457
-0.000174301
-0.000174055
-0.000173712
-0.00017326
-0.00017267
-0.000171889
-0.000170822
-0.000169325
-0.000167217
-0.000164267
-0.000160325
-0.000155295
-0.000149202
-0.000142173
-0.000134406
-0.000126058
-0.000117224
-0.000173497
-0.000173498
-0.000173488
-0.000173462
-0.000173418
-0.000173362
-0.000173298
-0.000173243
-0.000173212
-0.000173223
-0.000173287
-0.000173408
-0.000173583
-0.000173803
-0.000174055
-0.000174321
-0.000174582
-0.000174821
-0.000175019
-0.000175159
-0.000175229
-0.000175216
-0.000175111
-0.000174908
-0.000174601
-0.00017418
-0.000173631
-0.000172917
-0.000171973
-0.000170685
-0.000168886
-0.000166349
-0.000162829
-0.000158152
-0.000152193
-0.000145156
-0.00013701
-0.000128158
-0.000118262
-0.000107104
-0.00017387
-0.000173867
-0.000173847
-0.000173809
-0.000173748
-0.000173678
-0.000173609
-0.000173559
-0.00017355
-0.000173597
-0.00017371
-0.000173889
-0.000174126
-0.000174409
-0.000174719
-0.000175037
-0.000175342
-0.000175612
-0.000175829
-0.000175977
-0.00017604
-0.000176007
-0.000175869
-0.000175619
-0.00017525
-0.000174752
-0.000174106
-0.000173268
-0.000172159
-0.000170647
-0.000168541
-0.000165566
-0.000161496
-0.000156112
-0.000149267
-0.000141359
-0.000132418
-0.000122698
-0.000111408
-9.71208e-05
-0.00017423
-0.00017422
-0.000174188
-0.000174132
-0.000174059
-0.000173979
-0.000173912
-0.000173881
-0.000173907
-0.000174007
-0.000174185
-0.000174437
-0.000174749
-0.000175105
-0.000175483
-0.000175859
-0.000176211
-0.000176516
-0.000176755
-0.00017691
-0.000176968
-0.000176916
-0.000176746
-0.00017645
-0.000176022
-0.00017545
-0.000174711
-0.000173755
-0.000172494
-0.000170777
-0.000168362
-0.000164999
-0.000160437
-0.000154442
-0.000146919
-0.000138384
-0.000129175
-0.000119319
-0.000108333
-9.14618e-05
-0.000174585
-0.000174566
-0.000174521
-0.000174445
-0.000174359
-0.000174276
-0.000174221
-0.000174223
-0.000174303
-0.000174473
-0.000174732
-0.00017507
-0.000175469
-0.000175907
-0.000176359
-0.000176798
-0.0001772
-0.000177543
-0.000177805
-0.000177969
-0.000178023
-0.000177953
-0.000177753
-0.000177415
-0.000176933
-0.000176293
-0.000175469
-0.000174406
-0.000173004
-0.000171095
-0.000168427
-0.000164754
-0.000159818
-0.000153397
-0.000145491
-0.000136909
-0.000128163
-0.000119236
-0.000111225
-9.46623e-05
-3.77802e-07
-4.54545e-07
-5.26436e-07
-5.93496e-07
-6.55706e-07
-7.12232e-07
-7.61515e-07
-8.01802e-07
-8.31458e-07
-8.48455e-07
-8.48455e-07
-8.31458e-07
-8.01801e-07
-7.61515e-07
-7.12231e-07
-6.55706e-07
-5.93495e-07
-5.26435e-07
-4.54544e-07
-3.77801e-07
-2.17748e-05
-2.18679e-05
-2.19535e-05
-2.20316e-05
-2.21013e-05
-2.21616e-05
-2.22108e-05
-2.22476e-05
-2.22712e-05
-2.22813e-05
-2.22813e-05
-2.22712e-05
-2.22476e-05
-2.22108e-05
-2.21616e-05
-2.21013e-05
-2.20316e-05
-2.19535e-05
-2.18679e-05
-2.17748e-05
-3.80632e-05
-3.81656e-05
-3.82604e-05
-3.83468e-05
-3.84244e-05
-3.84922e-05
-3.85487e-05
-3.85927e-05
-3.8623e-05
-3.86387e-05
-3.86387e-05
-3.8623e-05
-3.85927e-05
-3.85487e-05
-3.84922e-05
-3.84244e-05
-3.83468e-05
-3.82604e-05
-3.81656e-05
-3.80632e-05
-5.2156e-05
-5.22681e-05
-5.23712e-05
-5.24642e-05
-5.25462e-05
-5.26165e-05
-5.26742e-05
-5.27184e-05
-5.27485e-05
-5.27641e-05
-5.27641e-05
-5.27485e-05
-5.27184e-05
-5.26742e-05
-5.26165e-05
-5.25462e-05
-5.24642e-05
-5.23712e-05
-5.22681e-05
-5.2156e-05
-6.53052e-05
-6.5429e-05
-6.55423e-05
-6.56439e-05
-6.57324e-05
-6.58074e-05
-6.5868e-05
-6.59136e-05
-6.59441e-05
-6.59593e-05
-6.59593e-05
-6.59441e-05
-6.59136e-05
-6.5868e-05
-6.58074e-05
-6.57324e-05
-6.56439e-05
-6.55423e-05
-6.5429e-05
-6.53052e-05
-7.73833e-05
-7.75191e-05
-7.76432e-05
-7.77544e-05
-7.78515e-05
-7.79335e-05
-7.79998e-05
-7.80498e-05
-7.80831e-05
-7.80997e-05
-7.80997e-05
-7.80831e-05
-7.80498e-05
-7.79998e-05
-7.79335e-05
-7.78515e-05
-7.77544e-05
-7.76432e-05
-7.75191e-05
-7.73833e-05
-8.83812e-05
-8.85289e-05
-8.8664e-05
-8.8785e-05
-8.88909e-05
-8.89805e-05
-8.9053e-05
-8.91078e-05
-8.91444e-05
-8.91628e-05
-8.91628e-05
-8.91444e-05
-8.91078e-05
-8.9053e-05
-8.89805e-05
-8.88909e-05
-8.8785e-05
-8.8664e-05
-8.85289e-05
-8.83812e-05
-9.83812e-05
-9.85405e-05
-9.86862e-05
-9.8817e-05
-9.89317e-05
-9.90289e-05
-9.91076e-05
-9.91671e-05
-9.92071e-05
-9.92271e-05
-9.92271e-05
-9.92071e-05
-9.91671e-05
-9.91076e-05
-9.90289e-05
-9.89317e-05
-9.8817e-05
-9.86862e-05
-9.85405e-05
-9.83812e-05
-0.000107454
-0.000107624
-0.00010778
-0.00010792
-0.000108043
-0.000108148
-0.000108232
-0.000108296
-0.000108339
-0.000108361
-0.000108361
-0.000108339
-0.000108296
-0.000108232
-0.000108148
-0.000108043
-0.00010792
-0.00010778
-0.000107624
-0.000107454
-0.000115661
-0.000115841
-0.000116006
-0.000116154
-0.000116284
-0.000116394
-0.000116484
-0.000116552
-0.000116597
-0.00011662
-0.00011662
-0.000116597
-0.000116552
-0.000116484
-0.000116394
-0.000116284
-0.000116154
-0.000116006
-0.000115841
-0.000115661
-0.000123061
-0.000123249
-0.000123421
-0.000123576
-0.00012371
-0.000123824
-0.000123917
-0.000123988
-0.000124035
-0.000124059
-0.000124059
-0.000124035
-0.000123988
-0.000123917
-0.000123824
-0.00012371
-0.000123576
-0.000123421
-0.000123249
-0.000123061
-0.000129711
-0.000129904
-0.000130081
-0.000130238
-0.000130373
-0.000130488
-0.000130583
-0.000130654
-0.000130703
-0.000130727
-0.000130727
-0.000130703
-0.000130654
-0.000130583
-0.000130488
-0.000130373
-0.000130238
-0.000130081
-0.000129904
-0.000129711
-0.000135664
-0.000135859
-0.000136034
-0.000136187
-0.000136321
-0.000136435
-0.000136528
-0.000136599
-0.000136647
-0.00013667
-0.00013667
-0.000136647
-0.000136599
-0.000136528
-0.000136435
-0.000136321
-0.000136187
-0.000136034
-0.000135859
-0.000135664
-0.000140968
-0.000141157
-0.000141324
-0.000141471
-0.000141599
-0.000141709
-0.000141798
-0.000141865
-0.00014191
-0.000141931
-0.000141931
-0.00014191
-0.000141865
-0.000141798
-0.000141709
-0.000141599
-0.000141471
-0.000141324
-0.000141157
-0.000140968
-0.000145665
-0.00014584
-0.000145994
-0.000146131
-0.000146249
-0.00014635
-0.000146431
-0.000146492
-0.000146532
-0.00014655
-0.00014655
-0.000146532
-0.000146492
-0.000146431
-0.00014635
-0.000146249
-0.000146131
-0.000145994
-0.00014584
-0.000145665
-0.000149794
-0.000149949
-0.000150085
-0.000150205
-0.000150308
-0.000150394
-0.000150464
-0.000150516
-0.000150548
-0.00015056
-0.00015056
-0.000150548
-0.000150516
-0.000150464
-0.000150394
-0.000150308
-0.000150205
-0.000150085
-0.000149949
-0.000149794
-0.00015339
-0.000153519
-0.00015363
-0.000153726
-0.000153807
-0.000153874
-0.000153926
-0.000153965
-0.000153988
-0.000153994
-0.000153994
-0.000153988
-0.000153965
-0.000153926
-0.000153874
-0.000153807
-0.000153726
-0.00015363
-0.000153519
-0.00015339
-0.000156488
-0.00015658
-0.000156657
-0.00015672
-0.000156772
-0.000156813
-0.000156844
-0.000156865
-0.000156876
-0.000156874
-0.000156874
-0.000156876
-0.000156865
-0.000156844
-0.000156813
-0.000156772
-0.00015672
-0.000156657
-0.00015658
-0.000156488
-0.00015911
-0.000159156
-0.000159188
-0.000159209
-0.000159222
-0.00015923
-0.000159234
-0.000159234
-0.000159229
-0.000159218
-0.000159218
-0.000159229
-0.000159234
-0.000159234
-0.00015923
-0.000159222
-0.000159209
-0.000159188
-0.000159156
-0.00015911
-0.000161276
-0.000161262
-0.000161236
-0.000161204
-0.000161169
-0.000161136
-0.000161106
-0.00016108
-0.000161057
-0.000161035
-0.000161035
-0.000161057
-0.00016108
-0.000161106
-0.000161136
-0.000161169
-0.000161204
-0.000161236
-0.000161262
-0.000161276
-0.000162998
-0.000162907
-0.000162808
-0.000162709
-0.000162615
-0.000162531
-0.000162459
-0.000162402
-0.000162357
-0.000162324
-0.000162324
-0.000162357
-0.000162402
-0.000162459
-0.000162531
-0.000162615
-0.000162709
-0.000162808
-0.000162907
-0.000162998
-0.000164277
-0.000164089
-0.000163898
-0.000163716
-0.00016355
-0.000163404
-0.000163283
-0.000163187
-0.000163117
-0.000163071
-0.000163071
-0.000163117
-0.000163187
-0.000163283
-0.000163404
-0.00016355
-0.000163716
-0.000163898
-0.000164089
-0.000164277
-0.000165104
-0.000164795
-0.000164492
-0.000164208
-0.000163952
-0.000163732
-0.00016355
-0.00016341
-0.000163311
-0.00016325
-0.00016325
-0.000163311
-0.00016341
-0.00016355
-0.000163732
-0.000163952
-0.000164208
-0.000164492
-0.000164795
-0.000165104
-0.000165461
-0.000165002
-0.000164559
-0.000164151
-0.000163787
-0.000163477
-0.000163224
-0.00016303
-0.000162896
-0.000162819
-0.000162819
-0.000162896
-0.00016303
-0.000163224
-0.000163477
-0.000163787
-0.000164151
-0.000164559
-0.000165002
-0.000165461
-0.000165315
-0.000164671
-0.000164059
-0.000163498
-0.000163005
-0.000162586
-0.000162247
-0.000161991
-0.000161816
-0.00016172
-0.00016172
-0.000161816
-0.000161991
-0.000162247
-0.000162586
-0.000163005
-0.000163498
-0.000164059
-0.000164671
-0.000165315
-0.00016462
-0.00016375
-0.000162931
-0.000162188
-0.000161538
-0.00016099
-0.000160551
-0.00016022
-0.000159997
-0.000159879
-0.000159879
-0.000159997
-0.00016022
-0.000160551
-0.00016099
-0.000161538
-0.000162188
-0.000162931
-0.00016375
-0.00016462
-0.000163316
-0.000162171
-0.000161101
-0.000160139
-0.000159304
-0.000158605
-0.000158047
-0.000157629
-0.00015735
-0.000157207
-0.000157207
-0.00015735
-0.000157629
-0.000158047
-0.000158605
-0.000159304
-0.000160139
-0.000161101
-0.000162171
-0.000163316
-0.000161324
-0.000159847
-0.00015848
-0.000157259
-0.000156207
-0.000155332
-0.000154636
-0.000154117
-0.000153773
-0.0001536
-0.0001536
-0.000153773
-0.000154117
-0.000154636
-0.000155332
-0.000156207
-0.000157259
-0.00015848
-0.000159847
-0.000161324
-0.000158554
-0.00015668
-0.00015496
-0.000153437
-0.000152135
-0.000151058
-0.000150205
-0.000149573
-0.000149155
-0.000148946
-0.000148946
-0.000149155
-0.000149573
-0.000150205
-0.000151058
-0.000152135
-0.000153437
-0.00015496
-0.00015668
-0.000158554
-0.000154899
-0.000152555
-0.000150423
-0.000148555
-0.000146969
-0.000145666
-0.000144639
-0.00014388
-0.000143379
-0.000143131
-0.000143131
-0.000143379
-0.00014388
-0.000144639
-0.000145666
-0.000146969
-0.000148555
-0.000150423
-0.000152555
-0.000154899
-0.000150242
-0.000147348
-0.00014475
-0.000142495
-0.000140591
-0.000139035
-0.000137815
-0.000136917
-0.000136329
-0.000136039
-0.000136039
-0.000136329
-0.000136917
-0.000137815
-0.000139035
-0.000140591
-0.000142495
-0.00014475
-0.000147348
-0.000150242
-0.000144472
-0.000140959
-0.000137827
-0.000135125
-0.000132863
-0.000131032
-0.000129609
-0.00012857
-0.000127894
-0.000127567
-0.000127567
-0.000127894
-0.00012857
-0.000129609
-0.000131032
-0.000132863
-0.000135125
-0.000137827
-0.000140959
-0.000144472
-0.000137521
-0.000133265
-0.000129503
-0.000126296
-0.000123649
-0.000121533
-0.000119909
-0.000118736
-0.000117981
-0.000117621
-0.000117621
-0.000117981
-0.000118736
-0.000119909
-0.000121533
-0.000123649
-0.000126296
-0.000129503
-0.000133265
-0.000137521
-0.000129279
-0.00012412
-0.000119625
-0.000115863
-0.000112816
-0.000110426
-0.000108621
-0.000107333
-0.000106515
-0.000106133
-0.000106133
-0.000106515
-0.000107333
-0.00010862
-0.000110426
-0.000112816
-0.000115863