/*--------------------------------*- C++ -*----------------------------------*\
  =========                 |
  \\      /  F ield         | OpenFOAM: The Open Source CFD Toolbox
   \\    /   O peration     | Website:  https://openfoam.org
    \\  /    A nd           | Version:  6
     \\/     M anipulation  |
\*---------------------------------------------------------------------------*/
FoamFile
{
    version     2.0;
    format      ascii;
    class       surfaceScalarField;
    location    "30";
    object      phi;
}
// * * * * * * * * * * * * * * * * * * * * * * * * * * * * * * * * * * * * * //

dimensions      [0 3 -1 0 0 0 0];

internalField   nonuniform List<scalar> 
17340
(
-1.30351e-10
1.30342e-10
-1.03653e-10
-2.66981e-11
-7.20908e-11
-3.15624e-11
-5.70361e-11
-1.50547e-11
-5.30972e-11
-3.93887e-12
-5.51146e-11
2.01738e-12
-6.00841e-11
4.96954e-12
-6.66814e-11
6.59727e-12
-7.4203e-11
7.52157e-12
-8.22554e-11
8.05243e-12
-9.0591e-11
8.33559e-12
-9.903e-11
8.43893e-12
-1.07421e-10
8.39058e-12
-1.15617e-10
8.19664e-12
-1.23469e-10
7.85144e-12
-1.30812e-10
7.34381e-12
-1.37471e-10
6.65901e-12
-1.43253e-10
5.78178e-12
-1.47954e-10
4.70052e-12
-1.51367e-10
3.41309e-12
-1.53302e-10
1.93476e-12
-1.53652e-10
3.50249e-13
-1.51837e-10
-1.81509e-12
-1.47508e-10
-4.32834e-12
-1.40355e-10
-7.15387e-12
-1.30138e-10
-1.02163e-11
-1.16792e-10
-1.33461e-11
-1.00499e-10
-1.62933e-11
-8.17245e-11
-1.87744e-11
-6.12298e-11
-2.04947e-11
-4.00259e-11
-2.12039e-11
-1.92593e-11
-2.07666e-11
-3.27517e-13
-1.89318e-11
1.63257e-11
-1.66532e-11
3.01572e-11
-1.38315e-11
4.10685e-11
-1.09113e-11
4.9912e-11
-8.84354e-12
5.65773e-11
-6.66529e-12
6.10772e-11
-4.49986e-12
-2.61456e-12
6.36917e-11
5.70729e-11
7.32693e-11
-3.46168e-12
3.38365e-11
-5.21351e-11
1.7111e-11
-8.56736e-11
1.84838e-11
-1.12646e-10
2.30332e-11
-1.37112e-10
2.64833e-11
-1.60792e-10
2.86499e-11
-1.84489e-10
3.0294e-11
-2.08429e-10
3.14617e-11
-2.32544e-10
3.21673e-11
-2.5664e-10
3.24319e-11
-2.80467e-10
3.22659e-11
-3.03738e-10
3.16617e-11
-3.26134e-10
3.0593e-11
-3.47304e-10
2.90211e-11
-3.66862e-10
2.69012e-11
-3.84389e-10
2.41861e-11
-3.99439e-10
2.08323e-11
-4.11549e-10
1.68102e-11
-4.20254e-10
1.21183e-11
-4.25105e-10
6.78594e-12
-4.25517e-10
7.62577e-13
-4.21292e-10
-6.04084e-12
-4.11657e-10
-1.39635e-11
-3.95991e-10
-2.28193e-11
-3.7392e-10
-3.22879e-11
-3.45395e-10
-4.18709e-11
-3.10792e-10
-5.0896e-11
-2.70953e-10
-5.8613e-11
-2.27179e-10
-6.42695e-11
-1.81133e-10
-6.72497e-11
-1.34648e-10
-6.7251e-11
-8.9323e-11
-6.42571e-11
-4.71276e-11
-5.88487e-11
-9.15192e-12
-5.18072e-11
2.3557e-11
-4.36202e-11
4.99849e-11
-3.52714e-11
7.07029e-11
-2.73833e-11
8.63023e-11
-2.00993e-11
-1.37482e-11
9.7436e-11
2.56385e-11
4.76308e-11
-1.84499e-11
7.79249e-11
-7.69561e-11
7.56171e-11
-1.29559e-10
7.10862e-11
-1.75929e-10
6.94037e-11
-2.18731e-10
6.92855e-11
-2.59849e-10
6.97672e-11
-2.99996e-10
7.04412e-11
-3.39454e-10
7.09199e-11
-3.78232e-10
7.09456e-11
-4.16165e-10
7.03651e-11
-4.52975e-10
6.90756e-11
-4.88302e-10
6.69883e-11
-5.21723e-10
6.40139e-11
-5.52762e-10
6.00606e-11
-5.809e-10
5.5039e-11
-6.05578e-10
4.88643e-11
-6.2621e-10
4.14643e-11
-6.42194e-10
3.27945e-11
-6.52935e-10
2.28589e-11
-6.57863e-10
1.17136e-11
-6.56501e-10
-5.98647e-13
-6.48579e-10
-1.39636e-11
-6.33433e-10
-2.91094e-11
-6.10533e-10
-4.57187e-11
-5.79647e-10
-6.31745e-11
-5.40922e-10
-8.05958e-11
-4.94955e-10
-9.68631e-11
-4.42812e-10
-1.10756e-10
-3.86006e-10
-1.21075e-10
-3.26403e-10
-1.26853e-10
-2.66051e-10
-1.27603e-10
-2.06992e-10
-1.23316e-10
-1.51154e-10
-1.14687e-10
-1.00145e-10
-1.02816e-10
-5.48091e-11
-8.89563e-11
-1.55079e-11
-7.45727e-11
1.7631e-11
-6.05222e-11
4.48456e-11
-4.73139e-11
-3.54451e-11
6.65425e-11
-1.94137e-11
6.70444e-11
-6.22314e-11
1.20743e-10
-1.18235e-10
1.3162e-10
-1.77286e-10
1.30138e-10
-2.35273e-10
1.27391e-10
-2.91583e-10
1.25595e-10
-3.46414e-10
1.24598e-10
-3.9985e-10
1.23878e-10
-4.51879e-10
1.22949e-10
-5.02379e-10
1.21445e-10
-5.51118e-10
1.19104e-10
-5.97766e-10
1.15724e-10
-6.41915e-10
1.11138e-10
-6.83092e-10
1.05191e-10
-7.20773e-10
9.77409e-11
-7.54393e-10
8.86596e-11
-7.83365e-10
7.78362e-11
-8.07088e-10
6.51868e-11
-8.24967e-10
5.06733e-11
-8.36437e-10
3.43296e-11
-8.40998e-10
1.62747e-11
-8.38255e-10
-3.342e-12
-8.2761e-10
-2.46092e-11
-8.08668e-10
-4.80511e-11
-7.81134e-10
-7.32523e-11
-7.44975e-10
-9.93334e-11
-7.00499e-10
-1.25072e-10
-6.48413e-10
-1.4895e-10
-5.89837e-10
-1.69331e-10
-5.26292e-10
-1.84621e-10
-4.59619e-10
-1.93526e-10
-3.91841e-10
-1.95381e-10
-3.25007e-10
-1.9015e-10
-2.60981e-10
-1.78713e-10
-2.01303e-10
-1.62494e-10
-1.47004e-10
-1.43255e-10
-9.87018e-11
-1.22875e-10
-5.65964e-11
-1.02628e-10
-2.0572e-11
-8.33382e-11
-6.5521e-11
9.5039e-12
-3.11457e-11
9.81902e-11
-8.30821e-11
1.72679e-10
-1.4591e-10
1.94449e-10
-2.13079e-10
1.97306e-10
-2.80886e-10
1.95198e-10
-3.47753e-10
1.92462e-10
-4.13065e-10
1.8991e-10
-4.76511e-10
1.87324e-10
-5.37861e-10
1.84299e-10
-5.9687e-10
1.80454e-10
-6.53237e-10
1.75471e-10
-7.06596e-10
1.69082e-10
-7.56518e-10
1.6106e-10
-8.02528e-10
1.512e-10
-8.44107e-10
1.39321e-10
-8.80718e-10
1.2527e-10
-9.11808e-10
1.08926e-10
-9.3683e-10
9.02094e-11
-9.5526e-10
6.91031e-11
-9.66609e-10
4.56789e-11
-9.70437e-10
2.01022e-11
-9.66318e-10
-7.46034e-12
-9.53654e-10
-3.72735e-11
-9.32151e-10
-6.95543e-11
-9.01695e-10
-1.03708e-10
-8.62395e-10
-1.38634e-10
-8.1464e-10
-1.72827e-10
-7.59165e-10
-2.04424e-10
-6.97078e-10
-2.31418e-10
-6.29851e-10
-2.51848e-10
-5.59271e-10
-2.64106e-10
-4.8731e-10
-2.67341e-10
-4.15984e-10
-2.61477e-10
-3.47144e-10
-2.47553e-10
-2.82339e-10
-2.27299e-10
-2.22706e-10
-2.02889e-10
-1.68948e-10
-1.76633e-10
-1.21394e-10
-1.50181e-10
-8.01003e-11
-1.24632e-10
-1.00673e-10
-4.49482e-11
-3.27999e-11
1.3099e-10
-9.22022e-11
2.32081e-10
-1.62661e-10
2.64907e-10
-2.37221e-10
2.71866e-10
-3.12473e-10
2.7045e-10
-3.86721e-10
2.66711e-10
-4.59106e-10
2.62295e-10
-5.29125e-10
2.57343e-10
-5.96413e-10
2.51587e-10
-6.60636e-10
2.44677e-10
-7.21442e-10
2.36277e-10
-7.78448e-10
2.26088e-10
-8.31232e-10
2.13844e-10
-8.79342e-10
1.9931e-10
-9.22302e-10
1.82281e-10
-9.59627e-10
1.62595e-10
-9.90829e-10
1.40128e-10
-1.01543e-09
1.14812e-10
-1.03298e-09
8.66507e-11
-1.04305e-09
5.57446e-11
-1.04523e-09
2.22826e-11
-1.03912e-09
-1.35676e-11
-1.02423e-09
-5.21641e-11
-1.00033e-09
-9.34549e-11
-9.67387e-10
-1.36648e-10
-9.25573e-10
-1.80447e-10
-8.75301e-10
-2.23099e-10
-8.173e-10
-2.62425e-10
-7.52659e-10
-2.9606e-10
-6.82835e-10
-3.21672e-10
-6.09626e-10
-3.37315e-10
-5.35035e-10
-3.41932e-10
-4.61139e-10
-3.35374e-10
-3.89857e-10
-3.18834e-10
-3.22801e-10
-2.94354e-10
-2.61163e-10
-2.64527e-10
-2.05645e-10
-2.3215e-10
-1.56576e-10
-1.99251e-10
-1.13987e-10
-1.67221e-10
-1.36972e-10
-7.76883e-11
-3.40218e-11
1.65012e-10
-9.70295e-11
2.95089e-10
-1.71678e-10
3.39556e-10
-2.50447e-10
3.50635e-10
-3.29801e-10
3.49803e-10
-4.0795e-10
3.4486e-10
-4.83911e-10
3.38256e-10
-5.57068e-10
3.305e-10
-6.26964e-10
3.21483e-10
-6.93206e-10
3.10919e-10
-7.55413e-10
2.98484e-10
-8.13199e-10
2.83874e-10
-8.66163e-10
2.66809e-10
-9.13896e-10
2.47042e-10
-9.55977e-10
2.24363e-10
-9.91987e-10
1.98604e-10
-1.02151e-09
1.69649e-10
-1.04414e-09
1.37441e-10
-1.05948e-09
1.01999e-10
-1.06718e-09
6.34398e-11
-1.06686e-09
2.19628e-11
-1.05816e-09
-2.22698e-11
-1.04062e-09
-6.97014e-11
-1.01407e-09
-1.20002e-10
-9.78515e-10
-1.72206e-10
-9.34122e-10
-2.24841e-10
-8.81296e-10
-2.75925e-10
-8.20755e-10
-3.22966e-10
-7.53591e-10
-3.63224e-10
-6.813e-10
-3.93962e-10
-6.05768e-10
-4.12847e-10
-5.2913e-10
-4.1857e-10
-4.53628e-10
-4.10875e-10
-3.81336e-10
-3.91127e-10
-3.13989e-10
-3.61701e-10
-2.52845e-10
-3.25671e-10
-1.9856e-10
-2.86435e-10
-1.51368e-10
-2.46442e-10
-1.11167e-10
-2.07422e-10
-1.70585e-10
-7.75537e-11
-3.43461e-11
1.99358e-10
-9.78991e-11
3.58642e-10
-1.73308e-10
4.14964e-10
-2.52888e-10
4.30216e-10
-3.32979e-10
4.29894e-10
-4.11694e-10
4.23576e-10
-4.87962e-10
4.14523e-10
-5.61089e-10
4.03626e-10
-6.30561e-10
3.90955e-10
-6.95947e-10
3.76305e-10
-7.56855e-10
3.59392e-10
-8.12908e-10
3.39926e-10
-8.63736e-10
3.17637e-10
-9.08976e-10
2.92282e-10
-9.48266e-10
2.63653e-10
-9.81253e-10
2.31591e-10
-1.00759e-09
1.95986e-10
-1.02694e-09
1.56791e-10
-1.03898e-09
1.14037e-10
-1.04337e-09
6.78367e-11
-1.03979e-09
1.83767e-11
-1.02785e-09
-3.42037e-11
-1.00714e-09
-9.04183e-11
-9.77476e-10
-1.49664e-10
-9.38859e-10
-2.10823e-10
-8.91439e-10
-2.72261e-10
-8.35594e-10
-3.3177e-10
-7.72036e-10
-3.86524e-10
-7.0189e-10
-4.3337e-10
-6.26746e-10
-4.69107e-10
-5.48647e-10
-4.90945e-10
-4.69953e-10
-4.97265e-10
-3.93166e-10
-4.87662e-10
-3.20594e-10
-4.63699e-10
-2.54154e-10
-4.28141e-10
-1.95229e-10
-3.84597e-10
-1.44394e-10
-3.37271e-10
-1.01749e-10
-2.89087e-10
-6.70061e-11
-2.42165e-10
-1.98128e-10
-3.94635e-11
-3.31757e-11
2.32534e-10
-9.47328e-11
4.20199e-10
-1.67976e-10
4.88208e-10
-2.45345e-10
5.07585e-10
-3.23157e-10
5.07705e-10
-3.99474e-10
4.99893e-10
-4.73171e-10
4.88221e-10
-5.43509e-10
4.73965e-10
-6.09941e-10
4.57387e-10
-6.72017e-10
4.38381e-10
-7.29344e-10
4.1672e-10
-7.81564e-10
3.92146e-10
-8.28341e-10
3.64414e-10
-8.69356e-10
3.33297e-10
-9.04302e-10
2.98599e-10
-9.32883e-10
2.60172e-10
-9.54813e-10
2.17915e-10
-9.69813e-10
1.71792e-10
-9.77609e-10
1.21833e-10
-9.77903e-10
6.81305e-11
-9.70336e-10
1.08096e-11
-9.54486e-10
-5.00534e-11
-9.29964e-10
-1.14941e-10
-8.96584e-10
-1.83044e-10
-8.54289e-10
-2.53118e-10
-8.03188e-10
-3.23362e-10
-7.43635e-10
-3.91322e-10
-6.76349e-10
-4.5381e-10
-6.02521e-10
-5.07198e-10
-5.23885e-10
-5.47743e-10
-4.42698e-10
-5.72133e-10
-3.61621e-10
-5.78341e-10
-2.83502e-10
-5.65781e-10
-2.10935e-10
-5.36266e-10
-1.46039e-10
-4.93037e-10
-9.03955e-11
-4.4024e-10
-4.45199e-11
-3.83146e-10
-8.39648e-12
-3.25211e-10
1.8537e-11
-2.69098e-10
-2.168e-10
3.72092e-11
-3.0696e-11
2.6323e-10
-8.80481e-11
4.77551e-10
-1.566e-10
5.5676e-10
-2.29155e-10
5.80139e-10
-3.02107e-10
5.80657e-10
-3.73515e-10
5.71301e-10
-4.42228e-10
5.56933e-10
-5.07483e-10
5.3922e-10
-5.68718e-10
5.18622e-10
-6.25481e-10
4.95143e-10
-6.77386e-10
4.68625e-10
-7.24097e-10
4.38857e-10
-7.65308e-10
4.05626e-10
-8.00741e-10
3.68731e-10
-8.30135e-10
3.27992e-10
-8.53237e-10
2.83274e-10
-8.69806e-10
2.34484e-10
-8.796e-10
1.81586e-10
-8.8238e-10
1.24613e-10
-8.77879e-10
6.36293e-11
-8.6571e-10
-1.35953e-12
-8.45289e-10
-7.04747e-11
-8.1632e-10
-1.43909e-10
-7.78558e-10
-2.20806e-10
-7.31882e-10
-2.99795e-10
-6.76341e-10
-3.78903e-10
-6.12287e-10
-4.55376e-10
-5.40464e-10
-5.25632e-10
-4.62168e-10
-5.85494e-10
-3.7934e-10
-6.30572e-10
-2.94473e-10
-6.56999e-10
-2.10607e-10
-6.62208e-10
-1.30963e-10
-6.45425e-10
-5.84501e-11
-6.08778e-10
4.64352e-12
-5.5613e-10
5.65948e-11
-4.92191e-10
9.64997e-11
-4.23051e-10
1.24627e-10
-3.53338e-10
1.41943e-10
-2.86414e-10
-2.24553e-10
1.49695e-10
-2.71977e-11
2.90427e-10
-7.85335e-11
5.28887e-10
-1.40313e-10
6.18539e-10
-2.05919e-10
6.45746e-10
-2.71914e-10
6.46652e-10
-3.36389e-10
6.35776e-10
-3.98192e-10
6.18736e-10
-4.56553e-10
5.97581e-10
-5.10908e-10
5.72976e-10
-5.60809e-10
5.45045e-10
-6.05885e-10
5.13702e-10
-6.45821e-10
4.78793e-10
-6.8034e-10
4.40144e-10
-7.09195e-10
3.97586e-10
-7.32156e-10
3.50954e-10
-7.49004e-10
3.00122e-10
-7.59516e-10
2.44996e-10
-7.63458e-10
1.85528e-10
-7.60571e-10
1.21726e-10
-7.50571e-10
5.36295e-11
-7.33201e-10
-1.87297e-11
-7.07705e-10
-9.59705e-11
-6.73667e-10
-1.77947e-10
-6.30813e-10
-2.6366e-10
-5.78977e-10
-3.51631e-10
-5.18145e-10
-4.39735e-10
-4.48737e-10
-5.24784e-10
-3.7154e-10
-6.0283e-10
-2.87992e-10
-6.69042e-10
-2.00355e-10
-7.18209e-10
-1.11348e-10
-7.46006e-10
-2.43157e-11
-7.4924e-10
5.71445e-11
-7.26885e-10
1.29506e-10
-6.8114e-10
1.90242e-10
-6.16866e-10
2.38001e-10
-5.39949e-10
2.71769e-10
-4.5682e-10
2.91605e-10
-3.73173e-10
2.98483e-10
-2.93292e-10
-2.20032e-10
2.93962e-10
-2.29541e-11
3.13382e-10
-6.69169e-11
5.7285e-10
-1.2034e-10
6.71963e-10
-1.77367e-10
7.02772e-10
-2.34805e-10
7.0409e-10
-2.90817e-10
6.91789e-10
-3.44269e-10
6.72188e-10
-3.94397e-10
6.47709e-10
-4.40641e-10
6.1922e-10
-4.82566e-10
5.8697e-10
-5.19817e-10
5.50953e-10
-5.52096e-10
5.11072e-10
-5.79149e-10
4.67197e-10
-6.00752e-10
4.19188e-10
-6.16695e-10
3.66897e-10
-6.26775e-10
3.10202e-10
-6.30773e-10
2.48994e-10
-6.28442e-10
1.83197e-10
-6.19478e-10
1.12762e-10
-6.03529e-10
3.76796e-11
-5.80269e-10
-4.19892e-11
-5.48942e-10
-1.27298e-10
-5.09033e-10
-2.17856e-10
-4.6023e-10
-3.12463e-10
-4.0235e-10
-4.0951e-10
-3.3524e-10
-5.06845e-10
-2.5957e-10
-6.00454e-10
-1.76237e-10
-6.86163e-10
-8.68116e-11
-7.58467e-10
6.25376e-12
-8.11274e-10
9.95118e-11
-8.39264e-10
1.89043e-10
-8.38771e-10
2.71685e-10
-8.09526e-10
3.44195e-10
-7.53651e-10
4.03521e-10
-6.76193e-10
4.47589e-10
-5.84017e-10
4.7527e-10
-4.84501e-10
4.86559e-10
-3.84462e-10
4.82477e-10
-2.8921e-10
-2.02379e-10
4.64824e-10
-1.82447e-11
3.31626e-10
-5.39441e-11
6.08549e-10
-9.79331e-11
7.15952e-10
-1.45248e-10
7.50087e-10
-1.93016e-10
7.51859e-10
-2.39509e-10
7.38282e-10
-2.83627e-10
7.16305e-10
-3.24621e-10
6.88702e-10
-3.61944e-10
6.56543e-10
-3.95173e-10
6.20199e-10
-4.23968e-10
5.79748e-10
-4.48046e-10
5.3515e-10
-4.67164e-10
4.86315e-10
-4.81108e-10
4.33132e-10
-4.89675e-10
3.75464e-10
-4.92657e-10
3.13184e-10
-4.89818e-10
2.46155e-10
-4.80868e-10
1.74248e-10
-4.65428e-10
9.73221e-11
-4.43e-10
1.5251e-11
-4.13092e-10
-7.18965e-11
-3.7511e-10
-1.6528e-10
-3.28329e-10
-2.64637e-10
-2.72499e-10
-3.68294e-10
-2.07552e-10
-4.74457e-10
-1.33152e-10
-5.81245e-10
-5.02384e-11
-6.83368e-10
3.99019e-11
-7.76304e-10
1.35012e-10
-8.53576e-10
2.3234e-10
-9.08603e-10
3.29062e-10
-9.35987e-10
4.21916e-10
-9.31625e-10
5.06963e-10
-8.94573e-10
5.80344e-10
-8.27032e-10
6.38591e-10
-7.3444e-10
6.79168e-10
-6.24594e-10
7.00756e-10
-5.06089e-10
7.03306e-10
-3.87011e-10
6.87908e-10
-2.73812e-10
-1.71051e-10
6.56579e-10
-1.33438e-11
3.4497e-10
-4.03367e-11
6.35542e-10
-7.42945e-11
7.49909e-10
-1.11239e-10
7.87031e-10
-1.48682e-10
7.89302e-10
-1.85036e-10
7.74636e-10
-2.19255e-10
7.50525e-10
-2.50614e-10
7.20061e-10
-2.78579e-10
6.84509e-10
-3.0274e-10
6.4436e-10
-3.22766e-10
5.99773e-10
-3.38379e-10
5.50763e-10
-3.49338e-10
4.97275e-10
-3.55417e-10
4.3921e-10
-3.56399e-10
3.76446e-10
-3.52048e-10
3.08833e-10
-3.42072e-10
2.36179e-10
-3.26067e-10
1.58243e-10
-3.0347e-10
7.47249e-11
-2.73824e-10
-1.43947e-11
-2.36438e-10
-1.09282e-10
-1.90809e-10
-2.10909e-10
-1.35989e-10
-3.19457e-10
-7.19139e-11
-4.32369e-10
1.57189e-12
-5.47943e-10
8.3752e-11
-6.63425e-10
1.73465e-10
-7.7308e-10
2.69322e-10
-8.72161e-10
3.69641e-10
-9.53895e-10
4.72182e-10
-1.01114e-09
5.73761e-10
-1.03757e-09
6.70637e-10
-1.0285e-09
7.58478e-10
-9.82414e-10
8.32919e-10
-9.01474e-10
8.90073e-10
-7.91594e-10
9.27047e-10
-6.61568e-10
9.42326e-10
-5.21369e-10
9.35824e-10
-3.80509e-10
9.08729e-10
-2.46717e-10
-1.25628e-10
8.63307e-10
-8.50119e-12
3.53471e-10
-2.67533e-11
6.53794e-10
-5.05253e-11
7.73681e-10
-7.68763e-11
8.13382e-10
-1.03754e-10
8.16179e-10
-1.29747e-10
8.00629e-10
-1.5388e-10
7.74657e-10
-1.75454e-10
7.41636e-10
-1.93951e-10
7.03006e-10
-2.08965e-10
6.59374e-10
-2.20167e-10
6.10975e-10
-2.27276e-10
5.57873e-10
-2.30034e-10
5.00033e-10
-2.28165e-10
4.37341e-10
-2.2142e-10
3.69702e-10
-2.09502e-10
2.96915e-10
-1.92021e-10
2.18698e-10
-1.68418e-10
1.3464e-10
-1.3778e-10
4.40867e-11
-9.98005e-11
-5.23743e-11
-5.3712e-11
-1.55371e-10
1.22316e-12
-2.65844e-10
6.51754e-11
-3.8341e-10
1.38054e-10
-5.05248e-10
2.19635e-10
-6.29523e-10
3.08973e-10
-7.52764e-10
4.05715e-10
-8.69821e-10
5.08422e-10
-9.74868e-10
6.15264e-10
-1.06074e-09
7.23789e-10
-1.11967e-09
8.3064e-10
-1.14442e-09
9.31695e-10
-1.12956e-09
1.02225e-09
-1.07297e-09
1.09751e-09
-9.76732e-10
1.15319e-09
-8.47276e-10
1.18609e-09
-6.94472e-10
1.19453e-09
-5.29802e-10
1.17838e-09
-3.64367e-10
1.13901e-09
-2.07347e-10
-6.55406e-11
1.07893e-09
-3.93397e-12
3.57405e-10
-1.37647e-11
6.63625e-10
-2.75856e-11
7.87502e-10
-4.35085e-11
8.29305e-10
-5.99557e-11
8.32626e-10
-7.57207e-11
8.16394e-10
-8.99097e-11
7.88846e-10
-1.01856e-10
7.53582e-10
-1.11048e-10
7.12198e-10
-1.17076e-10
6.65401e-10
-1.19594e-10
6.13494e-10
-1.18301e-10
5.5658e-10
-1.12905e-10
4.94637e-10
-1.03029e-10
4.27464e-10
-8.83725e-11
3.55045e-10
-6.85176e-11
2.7706e-10
-4.2899e-11
1.93079e-10
-1.07491e-11
1.0249e-10
2.89192e-11
4.41832e-12
7.6541e-11
-9.9996e-11
1.32518e-10
-2.11348e-10
1.97227e-10
-3.30553e-10
2.70481e-10
-4.56664e-10
3.526e-10
-5.87366e-10
4.43128e-10
-7.2005e-10
5.41258e-10
-8.50895e-10
6.46211e-10
-9.74774e-10
7.56602e-10
-1.08526e-09
8.70488e-10
-1.17462e-09
9.85209e-10
-1.23439e-09
1.09722e-09
-1.25642e-09
1.2021e-09
-1.23444e-09
1.29483e-09
-1.16569e-09
1.37022e-09
-1.05213e-09
1.42365e-09
-9.00705e-10
1.45164e-09
-7.22454e-10
1.45233e-09
-5.30493e-10
1.42561e-09
-3.37653e-10
1.3729e-09
-1.54636e-10
1.08975e-11
1.29646e-09
1.94498e-13
3.57211e-10
-1.82602e-12
6.65645e-10
-6.26223e-12
7.91939e-10
-1.22652e-11
8.35308e-10
-1.87497e-11
8.39111e-10
-2.47304e-11
8.22375e-10
-2.94045e-11
7.9352e-10
-3.21347e-11
7.56313e-10
-3.24059e-11
7.12469e-10
-2.97848e-11
6.6278e-10
-2.38863e-11
6.07595e-10
-1.43407e-11
5.47034e-10
-7.60133e-13
4.81056e-10
1.72609e-11
4.09443e-10
4.01732e-11
3.32133e-10
6.85722e-11
2.48661e-10
1.03267e-10
1.58384e-10
1.45248e-10
6.05097e-11
1.94765e-10
-4.50992e-11
2.5248e-10
-1.57711e-10
3.19128e-10
-2.77995e-10
3.94761e-10
-4.06186e-10
4.79132e-10
-5.41035e-10
5.72052e-10
-6.80286e-10
6.72929e-10
-8.20928e-10
7.80897e-10
-9.58862e-10
8.94867e-10
-1.08874e-09
1.01334e-09
-1.20374e-09
1.13427e-09
-1.29555e-09
1.25487e-09
-1.35498e-09
1.37141e-09
-1.37297e-09
1.47928e-09
-1.34231e-09
1.57316e-09
-1.25957e-09
1.64756e-09
-1.12653e-09
1.69752e-09
-9.50667e-10
1.71933e-09
-7.4426e-10
1.71101e-09
-5.22179e-10
1.67255e-09
-2.99193e-10
1.60562e-09
-8.77075e-11
1.04506e-10
1.51202e-09
3.84479e-12
3.53366e-10
8.80023e-12
6.6069e-10
1.28707e-11
7.87868e-10
1.59635e-11
8.32215e-10
1.86802e-11
8.36394e-10
2.17748e-11
8.1928e-10
2.59536e-11
7.89341e-10
3.183e-11
7.50436e-10
3.99364e-11
7.04362e-10
5.07511e-11
6.51965e-10
6.47268e-11
5.9362e-10
8.23176e-11
5.29443e-10
1.03999e-10
4.59375e-10
1.30237e-10
3.83205e-10
1.6171e-10
3.0066e-10
1.99195e-10
2.11176e-10
2.43644e-10
1.13935e-10
2.96295e-10
7.85916e-12
3.57406e-10
-1.06211e-10
4.27407e-10
-2.27712e-10
5.06737e-10
-3.57325e-10
5.95257e-10
-4.94706e-10
6.92484e-10
-6.38263e-10
7.9776e-10
-7.85562e-10
9.10192e-10
-9.3336e-10
1.0287e-09
-1.07737e-09
1.15197e-09
-1.21202e-09
1.2784e-09
-1.33016e-09
1.40584e-09
-1.423e-09
1.53144e-09
-1.48057e-09
1.65137e-09
-1.4929e-09
1.76085e-09
-1.4518e-09
1.85437e-09
-1.35308e-09
1.92615e-09
-1.19831e-09
1.97098e-09
-9.95496e-10
1.98493e-09
-7.58217e-10
1.96593e-09
-5.03174e-10
1.91378e-09
-2.47042e-10
1.82975e-09
-3.68029e-12
2.16109e-10
1.71815e-09
7.01726e-12
3.46349e-10
1.7996e-11
6.49711e-10
2.94586e-11
7.76405e-10
4.05444e-11
8.2113e-10
5.14242e-11
8.25514e-10
6.26276e-11
8.08077e-10
7.47642e-11
7.77205e-10
8.84284e-11
7.36772e-10
1.04184e-10
6.88607e-10
1.22577e-10
6.33573e-10
1.44154e-10
5.72043e-10
1.69488e-10
5.04109e-10
1.99201e-10
4.29663e-10
2.33981e-10
3.48425e-10
2.74725e-10
2.59916e-10
3.22554e-10
1.63347e-10
3.78842e-10
5.76479e-11
4.44188e-10
-5.74871e-11
5.18797e-10
-1.80819e-10
6.03318e-10
-3.12234e-10
6.97663e-10
-4.5167e-10
8.01187e-10
-5.98231e-10
9.12943e-10
-7.50018e-10
1.0318e-09
-9.04416e-10
1.1565e-09
-1.05806e-09
1.28571e-09
-1.20658e-09
1.41798e-09
-1.34429e-09
1.55161e-09
-1.46379e-09
1.68444e-09
-1.55583e-09
1.81358e-09
-1.60972e-09
1.9352e-09
-1.61451e-09
2.04441e-09
-1.56101e-09
2.13552e-09
-1.44419e-09
2.20256e-09
-1.26536e-09
2.24013e-09
-1.03307e-09
2.24419e-09
-7.6227e-10
2.21272e-09
-4.71704e-10
2.14585e-09
-1.8018e-10
2.04376e-09
9.84088e-11
3.47943e-10
1.91193e-09
9.65888e-12
3.3669e-10
2.563e-11
6.3374e-10
4.32258e-11
7.5881e-10
6.09905e-11
8.03365e-10
7.87537e-11
8.07751e-10
9.68585e-11
7.89972e-10
1.15836e-10
7.58227e-10
1.36283e-10
7.16325e-10
1.58822e-10
6.66068e-10
1.84105e-10
6.0829e-10
2.12827e-10
5.43321e-10
2.45749e-10
4.71186e-10
2.83729e-10
3.91683e-10
3.27762e-10
3.04392e-10
3.79074e-10
2.08604e-10
4.39137e-10
1.03284e-10
5.09551e-10
-1.27665e-11
5.90393e-10
-1.38329e-10
6.81748e-10
-2.72175e-10
7.83674e-10
-4.1416e-10
8.9549e-10
-5.63486e-10
1.01594e-09
-7.18677e-10
1.14349e-09
-8.77574e-10
1.27656e-09
-1.03748e-09
1.41354e-09
-1.19504e-09
1.55292e-09
-1.34596e-09
1.69315e-09
-1.48453e-09
1.83255e-09
-1.60319e-09
1.969e-09
-1.69228e-09
2.09968e-09
-1.74039e-09
2.22074e-09
-1.73558e-09
2.32726e-09
-1.66753e-09
2.41342e-09
-1.53035e-09
2.47313e-09
-1.32506e-09
2.50083e-09
-1.06076e-09
2.49236e-09
-7.53798e-10
2.44557e-09
-4.24917e-10
2.36036e-09
-9.49688e-11
2.23866e-09
2.20109e-10
5.00551e-10
2.08605e-09
1.17248e-11
3.24965e-10
3.15742e-11
6.13891e-10
5.39288e-11
7.36455e-10
7.69026e-11
7.80391e-10
1.00087e-10
7.84567e-10
1.237e-10
7.66359e-10
1.48239e-10
7.33687e-10
1.74344e-10
6.90221e-10
2.0275e-10
6.37661e-10
2.34283e-10
5.76757e-10
2.6987e-10
5.07733e-10
3.10568e-10
4.30488e-10
3.57591e-10
3.44661e-10
4.12368e-10
2.49615e-10
4.76632e-10
1.4434e-10
5.52501e-10
2.74144e-11
6.40404e-10
-1.00669e-10
7.39949e-10
-2.37874e-10
8.51217e-10
-3.83442e-10
9.73327e-10
-5.36269e-10
1.1047e-09
-6.94863e-10
1.24336e-09
-8.57334e-10
1.38721e-09
-1.02142e-09
1.53424e-09
-1.18451e-09
1.68264e-09
-1.34344e-09
1.83079e-09
-1.49411e-09
1.97719e-09
-1.63092e-09
2.12023e-09
-1.74623e-09
2.25793e-09
-1.82998e-09
2.38756e-09
-1.87002e-09
2.50532e-09
-1.85334e-09
2.60626e-09
-1.76847e-09
2.6845e-09
-1.60859e-09
2.73384e-09
-1.37441e-09
2.74868e-09
-1.0756e-09
2.72488e-09
-7.29999e-10
2.66025e-09
-3.60287e-10
2.55391e-09
1.13729e-11
2.41035e-09
3.63664e-10
6.75551e-10
2.23535e-09
1.31842e-11
3.11781e-10
3.57287e-11
5.91346e-10
6.13729e-11
7.10811e-10
8.79688e-11
7.53795e-10
1.14982e-10
7.57553e-10
1.4259e-10
7.38752e-10
1.71325e-10
7.04953e-10
2.01943e-10
6.59603e-10
2.35378e-10
6.04226e-10
2.72735e-10
5.39401e-10
3.15302e-10
4.65165e-10
3.64577e-10
3.81214e-10
4.22298e-10
2.8694e-10
4.90518e-10
1.81394e-10
5.71698e-10
6.31598e-11
6.67171e-10
-6.80588e-11
7.76328e-10
-2.09826e-10
8.9873e-10
-3.60275e-10
1.03319e-09
-5.17902e-10
1.17775e-09
-6.80832e-10
1.32993e-09
-8.47045e-10
1.48707e-09
-1.01447e-09
1.64662e-09
-1.18097e-09
1.80633e-09
-1.34422e-09
1.9643e-09
-1.50141e-09
2.11897e-09
-1.64878e-09
2.26896e-09
-1.78092e-09
2.41287e-09
-1.89014e-09
2.54888e-09
-1.966e-09
2.6744e-09
-1.99554e-09
2.78567e-09
-1.96461e-09
2.87773e-09
-1.86053e-09
2.94464e-09
-1.67549e-09
2.98015e-09
-1.40992e-09
2.97873e-09
-1.07418e-09
2.93644e-09
-6.87708e-10
2.85149e-09
-2.75337e-10
2.72203e-09
1.40828e-10
2.55376e-09
5.31936e-10
8.75034e-10
2.35428e-09
1.40187e-11
2.97762e-10
3.8026e-11
5.67339e-10
6.54234e-11
6.83413e-10
9.39785e-11
7.2524e-10
1.23159e-10
7.28372e-10
1.53205e-10
7.08706e-10
1.84788e-10
6.7337e-10
2.18891e-10
6.25499e-10
2.5678e-10
5.66338e-10
2.99993e-10
4.96187e-10
3.50361e-10
4.14797e-10
4.10022e-10
3.21553e-10
4.81446e-10
2.15516e-10
5.67517e-10
9.53237e-11
6.70675e-10
-3.99987e-11
7.90373e-10
-1.87757e-10
9.25379e-10
-3.44832e-10
1.07414e-09
-5.09034e-10
1.23411e-09
-6.77879e-10
1.4022e-09
-8.48922e-10
1.57511e-09
-1.01995e-09
1.74968e-09
-1.18904e-09
1.92311e-09
-1.35441e-09
2.09311e-09
-1.51421e-09
2.25785e-09
-1.66616e-09
2.41598e-09
-1.8069e-09
2.56634e-09
-1.93128e-09
2.70779e-09
-2.03158e-09
2.83871e-09
-2.09692e-09
2.95665e-09
-2.11347e-09
3.05789e-09
-2.06586e-09
3.13743e-09
-1.94006e-09
3.18925e-09
-1.72731e-09
3.20711e-09
-1.42778e-09
3.18552e-09
-1.05259e-09
3.12057e-09
-6.22765e-10
3.01024e-09
-1.65005e-10
2.8547e-09
2.96375e-10
2.66008e-09
7.26551e-10
1.10007e-09
2.43505e-09
1.42205e-11
2.83542e-10
3.84332e-11
5.43126e-10
6.60168e-11
6.5583e-10
9.48467e-11
6.9641e-10
1.2454e-10
6.98679e-10
1.55536e-10
6.77711e-10
1.88786e-10
6.4012e-10
2.25666e-10
5.88618e-10
2.67963e-10
5.24042e-10
3.17874e-10
4.46276e-10
3.78018e-10
3.54653e-10
4.51432e-10
2.4814e-10
5.41553e-10
1.25394e-10
6.52006e-10
-1.51286e-11
7.82551e-10
-1.70544e-10
9.31201e-10
-3.36406e-10
1.09587e-09
-5.09502e-10
1.27328e-09
-6.86448e-10
1.45954e-09
-8.64138e-10
1.6506e-09
-1.03997e-09
1.8426e-09
-1.21195e-09
2.03216e-09
-1.3786e-09
2.21647e-09
-1.53872e-09
2.39339e-09
-1.69113e-09
2.56133e-09
-1.8341e-09
2.71921e-09
-1.96478e-09
2.86621e-09
-2.07828e-09
3.00145e-09
-2.16682e-09
3.12354e-09
-2.21901e-09
3.23013e-09
-2.22007e-09
3.31753e-09
-2.15326e-09
3.38063e-09
-2.00316e-09
3.41335e-09
-1.76002e-09
3.40946e-09
-1.42389e-09
3.36366e-09
-1.00679e-09
3.27225e-09
-5.31351e-10
3.13197e-09
-2.47234e-11
2.94646e-09
4.81883e-10
2.72262e-09
9.50385e-10
1.35227e-09
2.47042e-09
1.37934e-11
2.69748e-10
3.69593e-11
5.1996e-10
6.31834e-11
6.29606e-10
9.06596e-11
6.68934e-10
1.1933e-10
6.70009e-10
1.50008e-10
6.47033e-10
1.84125e-10
6.06002e-10
2.23681e-10
5.49062e-10
2.71253e-10
4.7647e-10
3.30004e-10
3.87526e-10
4.03657e-10
2.81e-10
4.96456e-10
1.55341e-10
6.13144e-10
8.7063e-12
7.5418e-10
-1.56164e-10
9.16942e-10
-3.33306e-10
1.09866e-09
-5.18128e-10
1.29516e-09
-7.05997e-10
1.50157e-09
-8.92856e-10
1.71293e-09
-1.0755e-09
1.92462e-09
-1.25166e-09
2.13259e-09
-1.41993e-09
2.3335e-09
-1.57951e-09
2.52476e-09
-1.72998e-09
2.7045e-09
-1.87087e-09
2.8715e-09
-2.0011e-09
3.02502e-09
-2.1183e-09
3.16459e-09
-2.21785e-09
3.2896e-09
-2.29184e-09
3.3989e-09
-2.32831e-09
3.49019e-09
-2.31136e-09
3.55972e-09
-2.22279e-09
3.60225e-09
-2.04569e-09
3.61157e-09
-1.76934e-09
3.5815e-09
-1.39382e-09
3.50703e-09
-9.32321e-10
3.38494e-09
-4.09255e-10
3.21078e-09
1.49431e-10
2.99089e-09
7.01776e-10
2.73441e-09
1.20686e-09
1.63361e-09
2.45307e-09
1.27553e-11
2.56993e-10
3.36721e-11
4.99044e-10
5.70858e-11
6.06192e-10
8.17454e-11
6.44274e-10
1.0813e-10
6.43624e-10
1.37661e-10
6.17502e-10
1.72518e-10
5.71146e-10
2.15642e-10
5.05938e-10
2.70769e-10
4.21343e-10
3.42421e-10
3.15873e-10
4.35834e-10
1.87587e-10
5.56861e-10
3.43134e-11
7.07234e-10
-1.41667e-10
8.839e-10
-3.32831e-10
1.08321e-09
-5.32615e-10
1.2999e-09
-7.34815e-10
1.52799e-09
-9.34085e-10
1.76148e-09
-1.12635e-09
1.99487e-09
-1.30889e-09
2.22336e-09
-1.48016e-09
2.44303e-09
-1.63959e-09
2.6508e-09
-1.78728e-09
2.84445e-09
-1.92363e-09
3.02249e-09
-2.04891e-09
3.1841e-09
-2.16271e-09
3.32893e-09
-2.26314e-09
3.45685e-09
-2.34577e-09
3.56753e-09
-2.40252e-09
3.65996e-09
-2.42074e-09
3.73188e-09
-2.38328e-09
3.77939e-09
-2.27031e-09
3.79705e-09
-2.06335e-09
3.77847e-09
-1.75076e-09
3.71747e-09
-1.33282e-09
3.60903e-09
-8.23885e-10
3.44945e-09
-2.49677e-10
3.23673e-09
3.62159e-10
2.97866e-09
9.59839e-10
2.68666e-09
1.49887e-09
1.94566e-09
2.37461e-09
1.11464e-11
2.45846e-10
2.87229e-11
4.81467e-10
4.80731e-11
5.86842e-10
6.8767e-11
6.23581e-10
9.20848e-11
6.20306e-10
1.20354e-10
5.89232e-10
1.56867e-10
5.34634e-10
2.05928e-10
4.56877e-10
2.72881e-10
3.54389e-10
3.64076e-10
2.24678e-10
4.86706e-10
6.49579e-11
6.44329e-10
-1.2331e-10
8.33865e-10
-3.31203e-10
1.05049e-09
-5.49453e-10
1.28778e-09
-7.69904e-10
1.53849e-09
-9.85526e-10
1.79546e-09
-1.19106e-09
2.05218e-09
-1.38307e-09
2.30304e-09
-1.55975e-09
2.54346e-09
-1.72058e-09
2.76985e-09
-1.86598e-09
2.97955e-09
-1.99699e-09
3.17077e-09
-2.11485e-09
3.34245e-09
-2.2206e-09
3.49419e-09
-2.31445e-09
3.626e-09
-2.39494e-09
3.73806e-09
-2.45783e-09
3.83029e-09
-2.49475e-09
3.90178e-09
-2.49223e-09
3.95021e-09
-2.43171e-09
3.97148e-09
-2.29157e-09
3.95983e-09
-2.0517e-09
3.90869e-09
-1.69963e-09
3.81194e-09
-1.23607e-09
3.66473e-09
-6.76675e-10
3.46044e-09
-4.53883e-11
3.20288e-09
6.19727e-10
2.90163e-09
1.26109e-09
2.57067e-09
1.82982e-09
2.2899e-09
2.22643e-09
9.03754e-12
2.36809e-10
2.23765e-11
4.68128e-10
3.67393e-11
5.72479e-10
5.28182e-11
6.07502e-10
7.30182e-11
6.00106e-10
1.00964e-10
5.61287e-10
1.41522e-10
4.94075e-10
2.0089e-10
3.9751e-10
2.86506e-10
2.68773e-10
4.07113e-10
1.04071e-10
5.68824e-10
-9.67537e-11
7.69043e-10
-3.23528e-10
1.00164e-09
-5.63802e-10
1.25903e-09
-8.06844e-10
1.53257e-09
-1.04344e-09
1.81376e-09
-1.26672e-09
2.09499e-09
-1.47228e-09
2.36973e-09
-1.65781e-09
2.63268e-09
-1.8227e-09
2.87966e-09
-1.96756e-09
3.10755e-09
-2.09387e-09
3.31418e-09
-2.20361e-09
3.49819e-09
-2.29886e-09
3.65897e-09
-2.38137e-09
3.79648e-09
-2.45195e-09
3.91108e-09
-2.50954e-09
4.00322e-09
-2.54998e-09
4.07301e-09
-2.56454e-09
4.11957e-09
-2.53878e-09
4.14042e-09
-2.45256e-09
4.13116e-09
-2.28231e-09
4.08565e-09
-2.00619e-09
3.99699e-09
-1.61097e-09
3.85887e-09
-1.09795e-09
3.66613e-09
-4.83926e-10
3.41065e-09
2.10091e-10
3.10167e-09
9.28705e-10
2.75168e-09
1.61108e-09
2.37794e-09
2.20356e-09
2.66773e-09
2.00011e-09
6.53822e-12
2.30271e-10
1.50335e-11
4.59633e-10
2.39677e-11
5.63545e-10
3.54919e-11
5.95978e-10
5.35316e-11
5.82066e-10
8.34903e-11
5.31328e-10
1.3237e-10
4.45195e-10
2.08874e-10
3.21005e-10
3.23015e-10
1.54632e-10
4.84422e-10
-5.73361e-11
6.91774e-10
-3.04106e-10
9.37813e-10
-5.69567e-10
1.21376e-09
-8.39749e-10
1.50945e-09
-1.10254e-09
1.81495e-09
-1.34893e-09
2.12134e-09
-1.57311e-09
2.42109e-09
-1.77203e-09
2.70806e-09
-1.94479e-09
2.97744e-09
-2.09207e-09
3.22557e-09
-2.21569e-09
3.44985e-09
-2.31816e-09
3.64859e-09
-2.40235e-09
3.82087e-09
-2.47114e-09
3.96647e-09
-2.52697e-09
4.08569e-09
-2.57117e-09
4.17917e-09
-2.60303e-09
4.2476e-09
-2.6184e-09
4.29116e-09
-2.6081e-09
4.30893e-09
-2.55656e-09
4.29822e-09
-2.44185e-09
4.25418e-09
-2.23828e-09
4.17021e-09
-1.92222e-09
4.03899e-09
-1.47974e-09
3.85357e-09
-9.12535e-10
3.60578e-09
-2.36129e-10
3.29235e-09
5.23515e-10
2.92506e-09
1.296e-09
2.52035e-09
2.01578e-09
2.09979e-09
2.62412e-09
3.08009e-09
1.68742e-09
3.79825e-12
2.26472e-10
7.23415e-12
4.56197e-10
1.09396e-11
5.59839e-10
1.8888e-11
5.88029e-10
3.70047e-11
5.6395e-10
7.30491e-11
4.95284e-10
1.36739e-10
3.81506e-10
2.39741e-10
2.18003e-10
3.95191e-10
-8.17768e-13
6.04633e-10
-2.66778e-10
8.60136e-10
-5.59608e-10
1.15189e-09
-8.61323e-10
1.46813e-09
-1.15598e-09
1.79725e-09
-1.43166e-09
2.1289e-09
-1.68058e-09
2.45435e-09
-1.89857e-09
2.76654e-09
-2.08422e-09
3.05988e-09
-2.23813e-09
3.33016e-09
-2.36235e-09
3.57429e-09
-2.45982e-09
3.79018e-09
-2.53405e-09
3.97659e-09
-2.58876e-09
4.13302e-09