/*--------------------------------*- C++ -*----------------------------------*\
  =========                 |
  \\      /  F ield         | OpenFOAM: The Open Source CFD Toolbox
   \\    /   O peration     | Website:  https://openfoam.org
    \\  /    A nd           | Version:  6
     \\/     M anipulation  |
\*---------------------------------------------------------------------------*/
FoamFile
{
    version     2.0;
    format      ascii;
    class       volScalarField;
    location    "30";
    object      pos;
}
// * * * * * * * * * * * * * * * * * * * * * * * * * * * * * * * * * * * * * //

dimensions      [0 -3 1 0 0 1 0];

internalField   nonuniform List<scalar> 
8800
(
0.000530984
0.000532216
0.000532706
0.000532826
0.000532784
0.00053266
0.000532487
0.000532279
0.000532039
0.000531768
0.000531467
0.000531137
0.000530777
0.000530389
0.000529973
0.000529529
0.000529058
0.000528562
0.000528042
0.000527499
0.000526932
0.000526339
0.000525717
0.000525074
0.000524409
0.000523719
0.000522999
0.000522242
0.000521439
0.000520583
0.000519668
0.000518698
0.000517678
0.000516629
0.000515574
0.000514534
0.000513539
0.000512596
0.000511714
0.000510895
0.000525281
0.000526632
0.000527164
0.000527284
0.000527234
0.000527103
0.000526925
0.000526709
0.00052646
0.00052618
0.000525868
0.000525525
0.000525153
0.00052475
0.000524318
0.000523858
0.00052337
0.000522855
0.000522316
0.000521753
0.000521164
0.000520548
0.000519904
0.000519238
0.000518549
0.000517834
0.000517088
0.000516301
0.000515467
0.000514574
0.000513619
0.000512604
0.000511535
0.000510437
0.000509332
0.00050824
0.000507199
0.000506213
0.000505289
0.000504434
0.00051968
0.000521244
0.000521805
0.000521935
0.000521885
0.000521748
0.000521561
0.000521335
0.000521076
0.000520784
0.000520459
0.000520103
0.000519715
0.000519297
0.000518848
0.000518369
0.000517862
0.000517327
0.000516766
0.000516181
0.000515569
0.000514928
0.000514261
0.000513572
0.000512859
0.000512119
0.000511346
0.00051053
0.000509661
0.000508729
0.000507727
0.000506659
0.000505532
0.00050437
0.000503201
0.000502049
0.000500948
0.000499905
0.000498931
0.00049803
0.000514312
0.000516041
0.000516652
0.000516793
0.00051674
0.000516595
0.000516398
0.000516162
0.000515891
0.000515585
0.000515247
0.000514875
0.000514471
0.000514035
0.000513568
0.00051307
0.000512542
0.000511986
0.000511403
0.000510794
0.000510158
0.000509493
0.000508804
0.000508094
0.000507359
0.000506595
0.000505797
0.000504952
0.000504049
0.000503075
0.000502022
0.000500894
0.000499697
0.000498461
0.000497213
0.000495983
0.000494808
0.000493699
0.000492662
0.000491703
0.000509168
0.000511021
0.000511685
0.000511845
0.000511793
0.000511643
0.000511436
0.000511188
0.000510903
0.000510584
0.00051023
0.000509842
0.000509421
0.000508967
0.00050848
0.000507962
0.000507414
0.000506836
0.000506231
0.000505599
0.000504941
0.000504252
0.000503544
0.000502815
0.00050206
0.000501277
0.000500457
0.000499585
0.000498648
0.000497632
0.000496523
0.000495329
0.000494053
0.000492729
0.000491389
0.000490065
0.0004888
0.000487607
0.000486492
0.000485463
0.000504227
0.000506197
0.000506913
0.000507092
0.000507042
0.000506887
0.000506671
0.000506411
0.000506113
0.000505778
0.000505408
0.000505003
0.000504564
0.000504091
0.000503586
0.000503048
0.00050248
0.000501881
0.000501255
0.000500601
0.000499922
0.000499214
0.000498489
0.000497744
0.000496974
0.000496174
0.000495335
0.00049444
0.000493471
0.000492411
0.000491245
0.000489978
0.000488614
0.000487189
0.000485741
0.000484307
0.000482934
0.00048164
0.000480432
0.000479318
0.000499489
0.00050157
0.000502335
0.000502532
0.000502486
0.000502326
0.0005021
0.000501828
0.000501516
0.000501166
0.000500779
0.000500357
0.0004999
0.000499409
0.000498885
0.000498328
0.000497741
0.000497123
0.000496477
0.000495805
0.000495107
0.000494382
0.000493645
0.000492888
0.000492107
0.000491295
0.000490441
0.000489525
0.000488526
0.000487423
0.000486196
0.000484849
0.000483386
0.000481848
0.000480276
0.000478713
0.000477215
0.000475802
0.000474484
0.000473268
0.000494956
0.000497135
0.000497946
0.000498161
0.000498119
0.000497954
0.00049772
0.000497435
0.000497109
0.000496744
0.000496341
0.000495902
0.000495427
0.000494919
0.000494377
0.000493803
0.000493198
0.000492563
0.0004919
0.000491211
0.000490497
0.000489761
0.000489015
0.000488251
0.000487463
0.000486643
0.000485778
0.000484844
0.000483817
0.000482671
0.000481379
0.000479947
0.000478373
0.000476706
0.000474993
0.000473282
0.000471639
0.000470088
0.000468641
0.000467307
0.000490629
0.000492891
0.000493743
0.000493975
0.000493937
0.000493768
0.000493525
0.000493229
0.000492889
0.000492508
0.00049209
0.000491635
0.000491144
0.000490618
0.00049006
0.00048947
0.00048885
0.0004882
0.000487523
0.00048682
0.000486093
0.000485351
0.000484601
0.000483835
0.000483045
0.000482221
0.00048135
0.000480402
0.000479348
0.000478158
0.000476796
0.000475269
0.000473573
0.00047176
0.000469886
0.000468006
0.000466197
0.000464487
0.000462891
0.000461421
0.000486509
0.000488835
0.000489722
0.000489971
0.000489936
0.000489764
0.000489512
0.000489205
0.000488852
0.000488457
0.000488024
0.000487553
0.000487046
0.000486506
0.000485933
0.000485329
0.000484696
0.000484034
0.000483345
0.000482631
0.000481894
0.000481153
0.000480404
0.00047964
0.000478853
0.000478029
0.000477156
0.000476197
0.000475117
0.000473881
0.000472444
0.000470812
0.000468977
0.000467
0.000464944
0.000462871
0.000460872
0.000458981
0.000457218
0.000455591
0.000482595
0.000484964
0.00048588
0.000486143
0.000486112
0.000485937
0.000485678
0.00048536
0.000484994
0.000484586
0.000484138
0.000483653
0.000483133
0.000482579
0.000481993
0.000481377
0.000480733
0.000480061
0.000479364
0.000478643
0.000477899
0.000477167
0.000476422
0.000475665
0.000474886
0.000474068
0.000473196
0.000472229
0.000471123
0.000469838
0.000468317
0.000466567
0.000464576
0.000462413
0.00046015
0.00045787
0.000455651
0.000453548
0.000451589
0.000449783
0.000478886
0.000481278
0.000482214
0.000482489
0.000482462
0.000482284
0.000482018
0.00048169
0.000481313
0.000480892
0.000480431
0.000479933
0.0004794
0.000478834
0.000478237
0.000477611
0.000476958
0.00047628
0.000475577
0.000474852
0.000474113
0.000473389
0.000472653
0.000471909
0.000471142
0.000470335
0.000469469
0.000468494
0.000467362
0.000466022
0.000464407
0.000462523
0.00046037
0.000458
0.000455498
0.000452965
0.000450493
0.00044815
0.000445967
0.000443957
0.000475382
0.000477773
0.000478722
0.000479006
0.000478982
0.000478801
0.000478529
0.000478192
0.000477804
0.000477372
0.000476899
0.000476389
0.000475844
0.000475267
0.000474661
0.000474028
0.000473369
0.000472686
0.00047198
0.000471255
0.000470529
0.000469817
0.000469096
0.000468368
0.00046762
0.000466827
0.000465969
0.000464989
0.000463826
0.000462425
0.000460723
0.000458691
0.000456339
0.000453725
0.000450948
0.000448124
0.000445364
0.000442747
0.000440309
0.000438069
0.000472079
0.000474449
0.000475401
0.000475691
0.000475669
0.000475486
0.000475208
0.000474863
0.000474465
0.000474021
0.000473538
0.000473017
0.000472462
0.000471875
0.000471262
0.000470622
0.00046996
0.000469276
0.00046857
0.000467846
0.000467143
0.000466448
0.000465745
0.00046504
0.000464315
0.00046354
0.000462693
0.000461712
0.000460526
0.000459059
0.000457243
0.000455038
0.000452456
0.000449562
0.000446468
0.000443311
0.000440221
0.00043729
0.000434565
0.000432063
0.000468975
0.000471305
0.000472251
0.000472543
0.000472522
0.000472336
0.000472052
0.000471699
0.000471291
0.000470838
0.000470343
0.000469812
0.000469249
0.000468654
0.000468034
0.000467391
0.000466726
0.000466043
0.00046534
0.000464627
0.000463949
0.000463276
0.000462598
0.00046192
0.000461223
0.00046048
0.000459648
0.000458664
0.000457445
0.000455902
0.000453952
0.000451548
0.000448699
0.00044548
0.00044202
0.000438481
0.000435013
0.000431727
0.000428674
0.000425878
0.000466067
0.000468337
0.000469269
0.00046956
0.000469537
0.000469348
0.000469058
0.000468697
0.00046828
0.000467816
0.000467312
0.000466772
0.0004662
0.000465598
0.000464973
0.000464327
0.000463663
0.000462983
0.000462286
0.0004616
0.000460945
0.000460298
0.000459656
0.000459012
0.000458348
0.000457633
0.000456819
0.00045583
0.000454572
0.000452939
0.000450833
0.000448197
0.000445039
0.000441442
0.00043756
0.000433581
0.000429683
0.000425993
0.000422569
0.00041944
0.00046335
0.000465545
0.000466454
0.000466739
0.000466714
0.00046652
0.000466223
0.000465854
0.000465427
0.000464953
0.000464439
0.00046389
0.00046331
0.000462702
0.000462073
0.000461426
0.000460763
0.000460088
0.000459402
0.000458757
0.00045813
0.000457515
0.000456909
0.000456303
0.000455676
0.000454994
0.000454198
0.000453202
0.000451897
0.000450157
0.000447868
0.000444959
0.000441439
0.000437404
0.000433035
0.000428551
0.000424162
0.000420014
0.000416171
0.000412673
0.00046082
0.000462925
0.000463804
0.000464079
0.000464048
0.000463849
0.000463544
0.000463166
0.000462729
0.000462245
0.00046172
0.000461161
0.000460573
0.000459961
0.00045933
0.000458683
0.000458025
0.000457359
0.000456704
0.00045609
0.000455494
0.000454916
0.000454351
0.000453787
0.000453202
0.000452554
0.000451776
0.000450769
0.000449405
0.000447537
0.00044503
0.000441801
0.000437857
0.000433314
0.000428381
0.00042332
0.000418373
0.000413707
0.000409389
0.000405557
0.000458468
0.000460475
0.000461318
0.000461579
0.000461539
0.000461332
0.000461018
0.000460629
0.000460182
0.000459686
0.00045915
0.000458582
0.000457987
0.00045737
0.000456736
0.000456092
0.000455439
0.000454782
0.000454174
0.000453591
0.000453032
0.000452496
0.000451976
0.000451459
0.000450918
0.000450306
0.000449544
0.000448519
0.00044708
0.000445057
0.000442291
0.000438684
0.000434245
0.000429109
0.000423527
0.000417804
0.000412225
0.000406976
0.000402113
0.00039796
0.000456289
0.000458191
0.000458992
0.000459235
0.000459185
0.000458967
0.000458643
0.000458241
0.000457781
0.000457273
0.000456725
0.000456146
0.000455543
0.000454921
0.000454286
0.000453644
0.000453
0.000452379
0.000451804
0.000451258
0.00045074
0.000450249
0.000449777
0.00044931
0.000448816
0.000448239
0.00044749
0.000446437
0.000444905
0.000442693
0.000439618
0.000435563
0.000430541
0.000424716
0.000418386
0.00041191
0.000405616
0.000399712
0.000394326
0.000389795
0.000454275
0.000456067
0.000456824
0.000457045
0.000456981
0.00045675
0.000456412
0.000455997
0.000455522
0.000454999
0.000454438
0.000453847
0.000453235
0.000452608
0.000451972
0.000451334
0.000450703
0.000450131
0.000449591
0.000449084
0.000448611
0.000448169
0.00044775
0.000447335
0.000446888
0.000446345
0.000445603
0.000444508
0.000442857
0.000440416
0.000436969
0.000432384
0.000426678
0.000420052
0.000412861
0.000405528
0.00039843
0.000391784
0.00038587
0.00038095
0.000452419
0.000454099
0.000454808
0.000455005
0.000454923
0.000454677
0.000454323
0.00045389
0.000453398
0.000452858
0.000452281
0.000451678
0.000451056
0.000450424
0.000449787
0.000449154
0.00044857
0.000448031
0.000447529
0.000447065
0.00044664
0.000446251
0.000445886
0.000445524
0.000445124
0.000444612
0.000443868
0.000442714
0.000440913
0.000438193
0.0004343
0.000429085
0.000422576
0.00041502
0.000406841
0.000398538
0.00039054
0.000383055
0.000376633
0.000371319
0.000450713
0.000452281
0.00045294
0.000453109
0.000453007
0.000452742
0.000452368
0.000451915
0.000451403
0.000450843
0.00045025
0.000449632
0.000449
0.000448361
0.000447725
0.000447125
0.000446579
0.000446076
0.000445614
0.000445197
0.000444823
0.000444488
0.000444178
0.00044387
0.000443515
0.000443028
0.000442272
0.000441037
0.000439048
0.000435986
0.000431558
0.000425595
0.000418145
0.00040951
0.000400203
0.000390805
0.000381807
0.000373507
0.000366517
0.00036079
0.000449149
0.000450606
0.000451214
0.000451353
0.000451227
0.000450939
0.000450542
0.000450065
0.000449529
0.000448948
0.000448335
0.000447701
0.000447058
0.000446415
0.000445795
0.000445238
0.000444727
0.000444261
0.000443843
0.000443475
0.000443153
0.000442873
0.000442619
0.000442363
0.000442049
0.000441581
0.000440798
0.000439456
0.000437233
0.000433755
0.000428685
0.000421836
0.000413283
0.000403403
0.00039281
0.000382184
0.000372064
0.000362943
0.000355392
0.000349247
0.000447718
0.000449067
0.000449623
0.00044973
0.000449576
0.000449261
0.000448837
0.000448334
0.000447771
0.000447165
0.00044653
0.000445879
0.000445226
0.000444583
0.000444011
0.000443485
0.000443008
0.000442583
0.000442211
0.000441892
0.000441624
0.000441398
0.000441199
0.000440993
0.000440718
0.000440259
0.000439431
0.00043795
0.000435435
0.000431454
0.000425616
0.00041772
0.000407879
0.000396566
0.000384518
0.000372524
0.000361123
0.000351249
0.000343152
0.000336575
0.000446413
0.000447657
0.00044816
0.000448231
0.000448047
0.000447702
0.000447247
0.000446712
0.00044612
0.000445486
0.000444828
0.000444161
0.000443496
0.000442901
0.000442356
0.000441861
0.000441421
0.000441038
0.000440713
0.000440444
0.000440228
0.000440057
0.000439911
0.000439752
0.000439509
0.000439049
0.000438155
0.000436495
0.000433623
0.000429033
0.00042228
0.00041315
0.000401812
0.00038886
0.000375174
0.000361674
0.000349027
0.000338352
0.000329695
0.000322661
0.000445224
0.000446367
0.000446816
0.00044685
0.000446631
0.000446252
0.000445762
0.000445193
0.000444568
0.000443906
0.000443224
0.000442539
0.000441913
0.000441342
0.000440824
0.000440362
0.00043996
0.00043962
0.000439341
0.000439122
0.000438958
0.000438839
0.000438744
0.00043863
0.000438412
0.000437938
0.000436953
0.000435067
0.000431759
0.000426439
0.0004186
0.000408024
0.000394958
0.000380141
0.000364627
0.000349457
0.000335603
0.000324143
0.000314922
0.000307395
0.000444144
0.00044519
0.000445585
0.000445578
0.000445321
0.000444903
0.000444375
0.000443768
0.000443109
0.000442416
0.000441711
0.00044105
0.000440449
0.000439901
0.000439412
0.000438984
0.000438621
0.000438323
0.00043809
0.000437919
0.000437806
0.000437738
0.000437691
0.000437616
0.000437416
0.000436913
0.000435808
0.000433643
0.000429807
0.000423616
0.000414496
0.000402236
0.000387187
0.00037027
0.000352731
0.000335671
0.000320762
0.000308555
0.00029875
0.000290678
0.000443163
0.000444116
0.000444456
0.000444406
0.000444107
0.000443647
0.000443078
0.000442431
0.000441736
0.000441013
0.000440315
0.00043968
0.000439098
0.000438575
0.000438115
0.000437721
0.000437396
0.000437139
0.00043695
0.000436827
0.000436762
0.000436743
0.000436743
0.000436703
0.000436511
0.000435962
0.000434703
0.000432197
0.000427729
0.000420506
0.000409888
0.000395683
0.000378379
0.000359118
0.000339378
0.000320533
0.000304525
0.000291547
0.000281108
0.000272427
0.000442275
0.000443138
0.000443421
0.000443325
0.000442981
0.000442476
0.000441862
0.000441173
0.000440443
0.000439706
0.000439037
0.000438418
0.000437856
0.000437357
0.000436926
0.000436565
0.000436277
0.00043606
0.000435915
0.000435837
0.00043582
0.000435848
0.00043589
0.00043588
0.000435688
0.000435072
0.000433621
0.000430704
0.000425486
0.000417054
0.000404698
0.000388268
0.000368426
0.000346576
0.00032441
0.000303949
0.000286864
0.00027309
0.000261948
0.000252593
0.00044147
0.000442247
0.000442472
0.000442327
0.000441934
0.000441381
0.000440721
0.00043999
0.000439224
0.00043852
0.000437862
0.000437257
0.000436715
0.00043624
0.000435837
0.000435508
0.000435255
0.000435077
0.000434974
0.000434941
0.000434969
0.000435043
0.000435126
0.000435141
0.000434937
0.000434233
0.000432547
0.000429141
0.000423044
0.000413209
0.00039886
0.000379914
0.000357252
0.000332585
0.000307814
0.000285951
0.000267814
0.000253183
0.000241253
0.000231179
0.000440742
0.000441434
0.000441599
0.000441402
0.000440957
0.000440355
0.000439648
0.000438875
0.000438127
0.000437429
0.00043678
0.000436191
0.000435668
0.000435216
0.000434839
0.00043454
0.000434321
0.000434181
0.000434119
0.000434129
0.000434204
0.000434322
0.000434442
0.000434476
0.000434249
0.000433433
0.000431465
0.000427487
0.000420371
0.00040893
0.000392325
0.000370571
0.000344817
0.000317138
0.000290122
0.000266723
0.000247459
0.000231866
0.000219061
0.000208263
0.000440083
0.000440691
0.000440794
0.000440542
0.000440044
0.00043939
0.000438637
0.000437852
0.000437117
0.000436425
0.000435786
0.000435211
0.000434705
0.000434273
0.000433921
0.000433651
0.000433465
0.000433362
0.000433341
0.000433395
0.000433515
0.000433676
0.000433831
0.000433879
0.000433616
0.000432662
0.000430363
0.000425724
0.000417448
0.000404194
0.000385076
0.00036024
0.000331145
0.000300111
0.000271243
0.000246367
0.000225902
0.000209224
0.000195486
0.000184027
0.000439486
0.000440012
0.000440052
0.00043974
0.000439187
0.000438481
0.000437681
0.000436919
0.000436187
0.0004355
0.000434871
0.000434307
0.000433815
0.000433402
0.000433072
0.000432829
0.000432676
0.000432611
0.000432631
0.00043273
0.000432895
0.000433099
0.000433286
0.000433341
0.000433029
0.000431911
0.00042923
0.000423842
0.000414267
0.000399006
0.000377138
0.000348984
0.000316403
0.000282553
0.000251583
0.000225123
0.000203317
0.000185407
0.00017081
0.000159238
0.000438946
0.000439391
0.000439364
0.000438989
0.00043838
0.000437624
0.000436826
0.00043606
0.00043533
0.000434647
0.000434023
0.000433467
0.000432987
0.000432589
0.000432281
0.000432065
0.000431945
0.000431918
0.000431981
0.000432127
0.000432338
0.000432584
0.000432801
0.000432857
0.000432482
0.000431172
0.000428062
0.000421842
0.00041084
0.000393403
0.000368592
0.000336932
0.000300602
0.000264357
0.000231371
0.000203256
0.000179944
0.00016091
0.000146016
0.00013392
0.000438456
0.00043882
0.000438723
0.000438284
0.000437619
0.00043682
0.000436035
0.000435268
0.000434537
0.000433855
0.000433233
0.00043268
0.000432208
0.000431824
0.000431535
0.000431347
0.000431261
0.000431275
0.000431384
0.000431578
0.000431836
0.000432125
0.00043237
0.000432419
0.000431968
0.000430441
0.000426855
0.000419732
0.000407203
0.000387465
0.000359598
0.000324385
0.000284966
0.000246118
0.000211053
0.000181144
0.000156245
0.000137031
0.000121131
0.00010846
0.000438011
0.000438294
0.000438124
0.000437621
0.000436898
0.000436097
0.000435306
0.000434534
0.000433799
0.000433112
0.000432486
0.000431933
0.000431465
0.000431093
0.000430825
0.000430666
0.000430617
0.000430675
0.000430833
0.000431077
0.000431385
0.000431715
0.000431985
0.000432023
0.000431482
0.000429715
0.000425616
0.000417536
0.000403416
0.000381322
0.000350377
0.00031168
0.000269537
0.00022827
0.000191154
0.000159177
0.000133969
0.000113791
9.67282e-05
8.34712e-05
0.000437608
0.000437808
0.000437564
0.000436995
0.000436223
0.000435428
0.00043463
0.000433851
0.000433105
0.000432407
0.000431772
0.000431213
0.000430748
0.000430387
0.00043014
0.000430013
0.000430005
0.000430111
0.000430321
0.000430619
0.000430978
0.000431351
0.000431643
0.000431661
0.000431018
0.000428991
0.000424354
0.00041529
0.000399567
0.000375149
0.000341218
0.00029975
0.000254975
0.000211498
0.000172507
0.000138776
0.000113471
9.19502e-05
7.3751e-05
5.98101e-05
0.000437241
0.000437358
0.000437037
0.000436404
0.000435618
0.000434811
0.000434001
0.000433208
0.000432445
0.000431728
0.000431076
0.000430509
0.000430043
0.000429694
0.000429472
0.000429381
0.000429418
0.000429577
0.000429845
0.0004302
0.000430612
0.000431027
0.000431337
0.000431329
0.000430573
0.000428272
0.000423083
0.00041304
0.000395763
0.000369177
0.000332693
0.000288806
0.000241808
0.000196482
0.000155816
0.000121456
9.54511e-05
7.27236e-05
5.35332e-05
3.871e-05
0.000436908
0.000436941
0.000436543
0.000435842
0.000435058
0.000434238
0.000433411
0.000432595
0.000431805
0.000431061
0.000430388
0.000429808
0.000429342
0.000429007
0.000428813
0.000428763
0.000428853
0.000429071
0.0004294
0.000429817
0.000430283
0.000430739
0.000431064
0.000431023
0.000430144
0.000427559
0.000421821
0.000410833
0.000392103
0.000363528
0.000325124
0.000279272
0.000230611
0.000184027
0.000142365
0.000107919
8.11659e-05
5.76987e-05
3.78892e-05
2.20915e-05
0.000510144
0.000509463
0.000508841
0.000508263
0.000507723
0.000507226
0.000506796
0.000506453
0.000506208
0.000506054
0.000506054
0.000506208
0.000506453
0.000506796
0.000507226
0.000507723
0.000508263
0.000508841
0.000509463
0.000510144
0.00050365
0.000502941
0.000502293
0.000501691
0.000501129
0.00050061
0.000500161
0.000499804
0.000499548
0.000499387
0.000499387
0.000499548
0.000499804
0.000500161
0.00050061
0.000501129
0.000501691
0.000502293
0.000502941
0.00050365
0.000497205
0.00049646
0.000495779
0.00049515
0.00049456
0.000494015
0.000493545
0.00049317
0.000492901
0.000492731
0.000492731
0.000492901
0.00049317
0.000493545
0.000494015
0.00049456
0.00049515
0.000495779
0.00049646
0.000497205
0.000490827
0.000490036
0.000489314
0.000488644
0.00048802
0.000487443
0.000486943
0.000486545
0.00048626
0.00048608
0.00048608
0.00048626
0.000486545
0.000486943
0.000487443
0.00048802
0.000488644
0.000489314
0.000490036
0.000490827
0.000484526
0.000483678
0.000482904
0.000482181
0.00048151
0.00048089
0.000480352
0.000479924
0.000479616
0.000479422
0.000479422
0.000479616
0.000479924
0.000480352
0.00048089
0.00048151
0.000482181
0.000482904
0.000483678
0.000484526
0.000478304
0.000477388
0.000476551
0.000475767
0.000475031
0.000474357
0.000473771
0.000473302
0.000472965
0.000472753
0.000472753
0.000472965
0.000473302
0.000473771
0.000474357
0.000475031
0.000475767
0.000476551
0.000477388
0.000478304
0.000472162
0.000471165
0.000470252
0.000469396
0.000468581
0.000467841
0.000467194
0.000466676
0.000466303
0.000466068
0.000466068
0.000466303
0.000466676
0.000467194
0.000467841
0.000468581
0.000469396
0.000470252
0.000471165
0.000472162
0.000466094
0.000465001
0.000464
0.000463058
0.000462158
0.000461333
0.000460615
0.000460038
0.000459621
0.00045936
0.00045936
0.000459621
0.000460038
0.000460615
0.000461333
0.000462158
0.000463058
0.000464
0.000465001
0.000466094
0.000460085
0.000458881
0.000457779
0.000456739
0.000455741
0.000454821
0.000454021
0.000453375
0.000452907
0.000452616
0.000452616
0.000452907
0.000453375
0.000454021
0.000454821
0.000455741
0.000456739
0.000457779
0.000458881
0.000460085
0.000454113
0.000452782
0.000451564
0.000450413
0.000449305
0.000448287
0.000447393
0.000446669
0.000446144
0.000445818
0.000445818
0.000446144
0.000446669
0.000447393
0.000448287
0.000449305
0.000450413
0.000451564
0.000452782
0.000454113
0.000448143
0.00044667
0.000445324
0.000444049
0.000442827
0.000441702
0.000440706
0.000439896
0.000439307
0.000438943
0.000438943
0.000439307
0.000439896
0.000440706
0.000441702
0.000442827
0.000444049
0.000445324
0.00044667
0.000448143
0.000442137
0.000440505
0.000439016
0.000437605
0.000436279
0.000435032
0.000433923
0.00043302
0.000432363
0.000431958
0.000431958
0.000432363
0.00043302
0.000433923
0.000435032
0.000436279
0.000437605
0.000439016
0.000440505
0.000442137
0.000436045
0.000434238
0.000432592
0.000431073
0.000429613
0.000428233
0.000427004
0.000426001
0.000425271
0.000424823
0.000424823
0.000425271
0.000426001
0.000427004
0.000428233
0.000429613
0.000431073
0.000432592
0.000434238
0.000436045
0.000429812
0.00042781
0.000426045
0.000424383
0.000422775
0.000421252
0.000419895
0.000418788
0.000417982
0.00041749
0.00041749
0.000417982
0.000418788
0.000419895
0.000421252
0.000422775
0.000424383
0.000426045
0.00042781
0.000429812
0.000423372
0.000421219
0.000419295
0.000417472
0.000415703
0.000414029
0.000412537
0.000411322
0.000410438
0.000409902
0.000409902
0.000410438
0.000411322
0.000412537
0.000414029
0.000415703
0.000417472
0.000419295
0.000421219
0.000423372
0.000416702
0.000414371
0.000412268
0.000410269
0.000408328
0.000406492
0.000404861
0.000403534
0.000402573
0.000401993
0.000401993
0.000402573
0.000403534
0.000404861
0.000406492
0.000408328
0.000410269
0.000412268
0.000414371
0.000416702
0.000409724
0.000407186
0.000404889
0.000402698
0.000400571
0.000398563
0.000396787
0.000395349
0.00039431
0.000393688
0.000393688
0.00039431
0.000395349
0.000396787
0.000398563
0.000400571
0.000402698
0.000404889
0.000407186
0.000409724
0.000402345
0.000399581
0.000397072
0.000394672
0.000392344
0.000390156
0.000388231
0.00038668
0.000385566
0.000384904
0.000384904
0.000385566
0.00038668
0.000388231
0.000390156
0.000392344
0.000394672
0.000397072
0.000399581
0.000402345
0.000394473
0.000391467
0.000388726
0.000386097
0.000383551
0.000381173
0.000379097
0.000377436
0.000376248
0.000375549
0.000375549
0.000376248
0.000377436
0.000379097
0.000381173
0.000383551
0.000386097
0.000388726
0.000391467
0.000394473
0.000386011
0.000382745
0.00037975
0.00037687
0.00037409
0.000371514
0.000369285
0.000367514
0.000366258
0.000365525
0.000365525
0.000366258
0.000367514
0.000369285
0.000371514
0.00037409
0.00037687
0.00037975
0.000382745
0.000386011
0.000376856
0.000373308
0.000370034
0.000366878
0.000363848
0.000361067
0.000358686
0.000356811
0.000355489
0.000354727
0.000354727
0.000355489
0.000356811
0.000358686
0.000361067
0.000363848
0.000366878
0.000370034
0.000373308
0.000376856
0.0003669
0.000363045
0.000359461
0.000356004
0.00035271
0.00034972
0.00034719
0.000345217
0.000343835
0.000343048
0.000343048
0.000343835
0.000345217
0.00034719
0.00034972
0.00035271
0.000356004
0.000359461
0.000363045
0.000366899
0.000356025
0.000351833
0.000347906
0.000344125
0.000340556
0.00033736
0.000334688
0.000332624
0.00033119
0.000330383
0.000330383
0.00033119
0.000332624
0.000334688
0.00033736
0.000340556
0.000344125
0.000347906
0.000351833
0.000356025
0.000344111
0.000339547
0.000335244
0.000331117
0.000327271
0.000323878
0.000321078
0.000318935
0.000317456
0.000316634
0.000316634
0.000317456
0.000318935
0.000321078
0.000323878
0.000327271
0.000331117
0.000335244
0.000339547
0.000344111
0.000331036
0.000326059
0.000321348
0.000316867
0.000312754
0.000309181
0.000306272
0.000304066
0.000302554
0.000301722
0.000301722
0.000302554
0.000304066
0.000306272
0.000309181
0.000312754
0.000316867
0.000321348
0.000326059
0.000331036
0.000316678
0.000311246
0.000306106
0.000301277
0.000296923
0.000293203
0.000290212
0.000287963
0.000286432
0.000285599
0.000285599
0.000286432
0.000287963
0.000290212
0.000293203
0.000296923
0.000301277
0.000306106
0.000311246
0.000316678
0.000300918
0.000294999
0.000289428
0.000284283
0.000279734
0.000275912
0.000272878
0.000270615
0.000269082
0.000268257
0.000268257
0.000269082
0.000270615
0.000272878
0.000275912
0.000279734
0.000284283
0.000289428
0.000294999
0.000300918
0.000283659
0.00027724
0.000271267
0.000265868
0.000261196
0.000257334
0.000254306
0.000252065
0.000250556
0.00024975
0.00024975
0.000250556
0.000252065
0.000254306
0.000257334
0.000261196
0.000265868
0.000271267
0.00027724
0.000283659
0.000264833
0.000257938
0.000251634
0.000246081
0.000241383
0.00023756
0.0002346
0.000232427
0.00023097
0.000230196
0.000230196
0.00023097
0.000232427
0.0002346
0.00023756
0.000241383
0.000246081
0.000251634
0.000257938
0.000264833
0.000244423
0.000237131
0.000230619
0.00022505
0.000220448
0.00021676
0.00021394
0.000211886
0.000210516
0.00020979
0.00020979
0.000210516
0.000211886
0.00021394
0.00021676
0.000220448
0.00022505
0.000230619
0.000237131
0.000244423
0.000222487
0.000214948
0.000208403
0.000202991
0.000198626
0.000195189
0.000192582
0.000190697
0.000189448
0.000188787
0.000188787
0.000189448
0.000190697
0.000192582
0.000195189
0.000198626
0.000202991
0.000208403
0.000214948
0.000222487
0.000199178
0.000191618
0.000185341
0.000180245
0.00017622
0.00017312
0.000170806
0.000169151
0.000168064
0.00016749
0.00016749
0.000168064
0.000169151
0.000170806
0.00017312
0.00017622
0.000180245
0.000185341
0.000191618
0.000199178
0.000174953
0.000167597
0.000161697
0.000157076
0.000153538
0.000150886
0.000148947
0.000147582
0.000146693
0.000146224
0.000146224
0.000146693
0.000147582
0.000148947
0.000150886
0.000153538
0.000157076
0.000161697
0.000167597
0.000174953
0.000150073
0.000143099
0.000137806
0.000133857
0.000130954
0.000128851
0.000127353
0.000126317
0.00012565
0.000125297
0.000125297
0.00012565
0.000126317
0.000127353
0.000128851
0.000130954
0.000133857
0.000137806
0.000143099
0.000150073
0.000124803
0.00011851
0.00011409
0.000111001
0.00010885
0.000107359
0.000106335
0.000105644
0.000105202
0.000104965
0.000104965
0.000105202
0.000105644
0.000106335
0.000107359
0.00010885
0.000111001
0.00011409
0.00011851
0.000124803
9.95612e-05
9.43027e-05
9.10067e-05
8.89138e-05
8.75696e-05
8.67013e-05
8.61389e-05
8.57747e-05
8.55434e-05
8.54114e-05
8.54114e-05
8.55434e-05
8.57747e-05
8.61389e-05
8.67013e-05
8.75696e-05
8.89138e-05
9.10067e-05
9.43027e-05
9.95612e-05
7.48511e-05
7.09986e-05
6.90174e-05
6.79645e-05
6.73945e-05
6.70883e-05
6.69259e-05
6.68366e-05
6.6779e-05
6.67331e-05
6.67331e-05
6.6779e-05
6.68366e-05
6.69259e-05
6.70883e-05
6.73945e-05
6.79645e-05
6.90174e-05
7.09986e-05
7.48511e-05
5.12721e-05
4.91888e-05
4.85759e-05
4.84617e-05
4.85218e-05
4.86407e-05
4.8766e-05
4.88685e-05
4.89302e-05
4.89432e-05
4.89432e-05
4.89302e-05
4.88685e-05
4.8766e-05
4.86407e-05
4.85218e-05
4.84617e-05
4.85759e-05
4.91888e-05
5.12721e-05
2.96704e-05
2.95801e-05
3.01101e-05
3.0627e-05
3.10481e-05
3.13834e-05
3.16428e-05
3.18297e-05
3.19427e-05
3.19791e-05
3.19791e-05
3.19427e-05
3.18297e-05
3.16428e-05
3.13834e-05
3.10481e-05
3.0627e-05
3.01101e-05
2.95801e-05
2.96704e-05
1.15983e-05
1.29951e-05
1.39356e-05
1.45346e-05
1.49418e-05
1.52368e-05
1.54531e-05
1.56048e-05
1.56964e-05
1.57215e-05
1.57215e-05
1.56964e-05
1.56048e-05
1.54531e-05
1.52368e-05
1.49418e-05
1.45346e-05
1.39356e-05
1.29951e-05
1.15983e-05
0.000510895
0.000511714
0.000512596
0.000513539
0.000514534
0.000515574
0.000516629
0.000517678
0.000518698
0.000519668
0.000520583
0.000521439
0.000522242
0.000522999
0.000523719
0.000524409
0.000525074
0.000525717
0.000526339
0.000526932
0.000527499
0.000528042
0.000528562
0.000529058
0.000529529
0.000529973
0.000530389
0.000530777
0.000531137
0.000531468
0.000531768
0.000532039
0.000532279
0.000532487
0.00053266
0.000532784
0.000532826
0.000532706
0.000532216
0.000530983
0.000504434
0.000505289
0.000506213
0.000507199
0.00050824
0.000509332
0.000510437
0.000511535
0.000512604
0.000513619
0.000514574
0.000515467
0.000516301
0.000517088
0.000517834
0.000518549
0.000519238
0.000519904
0.000520548
0.000521164
0.000521753
0.000522316
0.000522855
0.00052337
0.000523858
0.000524318
0.00052475