/*--------------------------------*- C++ -*----------------------------------*\
  =========                 |
  \\      /  F ield         | OpenFOAM: The Open Source CFD Toolbox
   \\    /   O peration     | Website:  https://openfoam.org
    \\  /    A nd           | Version:  6
     \\/     M anipulation  |
\*---------------------------------------------------------------------------*/
FoamFile
{
    version     2.0;
    format      ascii;
    class       volScalarField;
    location    "30";
    object      source;
}
// * * * * * * * * * * * * * * * * * * * * * * * * * * * * * * * * * * * * * //

dimensions      [0 -3 0 0 0 1 0];

internalField   nonuniform List<scalar> 
8800
(
0.000418745
0.000418611
0.00041859
0.00041866
0.000418728
0.000418785
0.000418839
0.000418901
0.000418972
0.00041905
0.000419136
0.00041923
0.00041933
0.000419438
0.000419552
0.000419673
0.000419799
0.000419931
0.000420068
0.000420209
0.000420355
0.000420504
0.000420652
0.0004208
0.00042095
0.000421101
0.000421254
0.000421409
0.000421566
0.000421727
0.000421891
0.000422059
0.000422229
0.000422399
0.000422567
0.00042273
0.000422884
0.00042303
0.000423168
0.000423297
0.000392273
0.000391672
0.000391631
0.000391708
0.000391798
0.000391891
0.000391992
0.000392103
0.000392226
0.000392361
0.000392509
0.000392668
0.00039284
0.000393022
0.000393216
0.000393419
0.000393632
0.000393854
0.000394083
0.00039432
0.000394563
0.000394811
0.000395047
0.000395281
0.000395517
0.000395753
0.000395993
0.000396238
0.000396491
0.000396755
0.000397032
0.000397321
0.000397623
0.000397929
0.000398234
0.000398535
0.000398821
0.000399093
0.000399348
0.000399583
0.000366425
0.000365637
0.000365524
0.000365611
0.000365735
0.000365869
0.000366014
0.000366174
0.000366349
0.000366541
0.00036675
0.000366974
0.000367214
0.000367468
0.000367736
0.000368017
0.000368309
0.000368612
0.000368925
0.000369245
0.000369573
0.000369903
0.000370204
0.000370504
0.000370802
0.000371101
0.000371406
0.000371722
0.000372055
0.000372411
0.000372796
0.000373208
0.000373647
0.000374101
0.000374562
0.000375018
0.000375455
0.000375871
0.000376261
0.00037662
0.00034135
0.000340595
0.000340454
0.000340531
0.000340668
0.000340831
0.000341014
0.000341218
0.000341443
0.000341689
0.000341955
0.000342239
0.000342541
0.00034286
0.000343195
0.000343543
0.000343903
0.000344274
0.000344654
0.000345042
0.000345435
0.000345819
0.000346166
0.000346506
0.000346843
0.000347181
0.000347529
0.000347896
0.000348293
0.000348732
0.000349218
0.000349755
0.000350338
0.000350952
0.000351583
0.000352214
0.000352822
0.0003534
0.000353943
0.000354444
0.000317244
0.000316589
0.000316458
0.000316532
0.000316678
0.000316863
0.000317078
0.000317321
0.000317591
0.000317885
0.000318201
0.000318538
0.000318894
0.000319267
0.000319655
0.000320057
0.000320469
0.000320891
0.00032132
0.000321755
0.00032219
0.000322603
0.00032297
0.000323326
0.000323677
0.000324031
0.0003244
0.0003248
0.000325246
0.000325756
0.00032634
0.000327002
0.000327736
0.000328523
0.00032934
0.000330163
0.000330962
0.000331724
0.000332439
0.000333099
0.000294193
0.000293683
0.000293589
0.000293672
0.000293828
0.000294031
0.000294273
0.000294548
0.000294855
0.000295188
0.000295545
0.000295923
0.000296321
0.000296735
0.000297163
0.000297601
0.000298049
0.000298503
0.000298961
0.00029942
0.000299874
0.000300286
0.00030065
0.000300998
0.00030134
0.000301688
0.000302058
0.000302472
0.000302954
0.000303525
0.000304202
0.00030499
0.000305883
0.000306855
0.000307876
0.000308911
0.000309921
0.000310888
0.000311796
0.000312636
0.000272234
0.000271927
0.000271895
0.000271995
0.000272162
0.000272379
0.000272641
0.000272941
0.000273274
0.000273636
0.000274023
0.00027443
0.000274856
0.000275295
0.000275746
0.000276205
0.000276668
0.000277135
0.000277601
0.000278063
0.00027851
0.000278896
0.000279234
0.000279553
0.000279865
0.000280186
0.000280537
0.00028095
0.000281453
0.000282076
0.000282844
0.00028376
0.00028482
0.000285992
0.000287235
0.000288505
0.00028975
0.000290944
0.000292068
0.000293108
0.000251393
0.000251346
0.000251399
0.000251523
0.000251701
0.000251928
0.000252202
0.000252517
0.000252868
0.000253247
0.00025365
0.000254073
0.000254512
0.000254962
0.000255419
0.00025588
0.000256342
0.000256802
0.000257257
0.000257702
0.00025812
0.000258453
0.000258745
0.000259015
0.000259278
0.000259554
0.000259871
0.000260266
0.000260778
0.000261445
0.000262299
0.000263347
0.000264585
0.000265973
0.00026746
0.000268991
0.000270498
0.000271945
0.000273309
0.000274571
0.000231685
0.000231946
0.000232103
0.000232258
0.000232446
0.000232679
0.000232958
0.000233279
0.000233635
0.00023402
0.000234427
0.000234852
0.000235289
0.000235735
0.000236183
0.000236631
0.000237074
0.000237511
0.000237937
0.000238346
0.000238716
0.000238974
0.000239204
0.000239408
0.000239606
0.000239821
0.000240087
0.00024045
0.000240958
0.000241661
0.000242598
0.000243782
0.00024521
0.000246834
0.000248591
0.000250412
0.000252211
0.000253942
0.000255575
0.000257083
0.000213109
0.000213716
0.000213992
0.000214184
0.00021438
0.000214614
0.00021489
0.000215208
0.00021556
0.000215939
0.000216339
0.000216753
0.000217177
0.000217604
0.00021803
0.00021845
0.000218861
0.000219259
0.000219642
0.00022
0.000220305
0.000220469
0.000220623
0.000220749
0.000220867
0.000221007
0.000221208
0.000221526
0.000222021
0.00022275
0.000223769
0.000225094
0.000226725
0.000228607
0.000230662
0.000232812
0.000234937
0.000236983
0.000238912
0.000240692
0.000195653
0.000196631
0.000197037
0.000197269
0.000197473
0.000197702
0.000197971
0.000198277
0.000198616
0.00019898
0.000199361
0.000199754
0.000200152
0.00020055
0.000200942
0.000201323
0.00020169
0.00020204
0.000202367
0.00020266
0.000202856
0.000202946
0.000203014
0.00020305
0.000203078
0.000203131
0.000203256
0.000203517
0.000203986
0.000204735
0.000205835
0.000207305
0.000209162
0.000211329
0.000213711
0.000216209
0.000218698
0.000221099
0.00022336
0.000225446
0.000179294
0.000180652
0.000181196
0.000181471
0.000181682
0.000181904
0.000182158
0.000182447
0.000182766
0.000183106
0.00018346
0.000183823
0.000184187
0.000184547
0.000184896
0.000185231
0.000185546
0.000185838
0.000186102
0.00018632
0.000186396
0.000186403
0.000186379
0.000186319
0.000186247
0.000186205
0.000186243
0.000186437
0.000186873
0.000187637
0.000188823
0.000190454
0.000192538
0.000195005
0.000197745
0.000200634
0.000203527
0.000206323
0.000208956
0.000211382
0.000163999
0.000165736
0.00016642
0.000166741
0.000166958
0.00016717
0.000167407
0.000167673
0.000167965
0.000168276
0.000168598
0.000168924
0.000169248
0.000169564
0.000169866
0.000170148
0.000170406
0.000170636
0.000170833
0.000170973
0.000170919
0.000170837
0.000170716
0.000170554
0.000170379
0.000170234
0.000170179
0.000170298
0.000170698
0.000171482
0.000172745
0.00017454
0.000176869
0.00017966
0.000182789
0.000186106
0.000189445
0.00019268
0.000195728
0.000198534
0.000149733
0.000151833
0.000152657
0.000153023
0.000153248
0.000153449
0.000153666
0.000153907
0.000154169
0.000154447
0.000154732
0.000155018
0.000155299
0.000155568
0.000155819
0.000156046
0.000156245
0.000156411
0.000156537
0.000156572
0.000156409
0.000156235
0.000156016
0.00015575
0.000155469
0.000155211
0.000155064
0.000155112
0.000155474
0.000156276
0.000157626
0.00015959
0.000162177
0.000165313
0.000168859
0.000172641
0.000176469
0.000180189
0.000183698
0.000186926
0.000136454
0.00013889
0.000139849
0.000140263
0.000140495
0.000140685
0.000140881
0.000141096
0.000141327
0.00014157
0.000141818
0.000142063
0.0001423
0.000142521
0.000142721
0.000142893
0.000143033
0.000143135
0.000143192
0.000143081
0.000142842
0.000142578
0.000142253
0.000141884
0.000141498
0.000141138
0.0001409
0.000140882
0.000141213
0.000142035
0.000143476
0.000145618
0.000148477
0.00015198
0.000155974
0.000160259
0.000164619
0.00016887
0.000172886
0.000176582
0.000124117
0.000126853
0.000127941
0.000128402
0.000128644
0.000128825
0.000129001
0.000129189
0.00012939
0.000129599
0.00012981
0.000130015
0.000130209
0.000130384
0.000130535
0.000130654
0.000130737
0.000130778
0.000130766
0.000130501
0.000130185
0.00012983
0.000129408
0.00012894
0.000128455
0.000128004
0.000127684
0.000127607
0.000127915
0.000128767
0.000130309
0.000132643
0.000135793
0.000139687
0.00014416
0.000148985
0.000153918
0.000158744
0.000163316
0.000167512
0.000112678
0.000115672
0.000116877
0.000117385
0.000117638
0.000117812
0.000117971
0.000118136
0.000118309
0.000118486
0.000118662
0.00011883
0.000118984
0.000119116
0.000119219
0.000119288
0.000119317
0.000119298
0.000119139
0.000118798
0.000118405
0.000117964
0.000117453
0.000116895
0.000116322
0.000115791
0.000115402
0.000115279
0.000115578
0.000116475
0.000118137
0.000120684
0.000124151
0.000128466
0.000133451
0.000138853
0.000144398
0.000149843
0.000155015
0.000159663
0.000102094
0.000105294
0.000106604
0.000107157
0.000107425
0.000107595
0.00010774
0.000107885
0.000108034
0.000108183
0.000108329
0.000108463
0.00010858
0.000108671
0.000108732
0.000108754
0.000108731
0.000108654
0.000108338
0.000107933
0.000107468
0.000106945
0.000106355
0.000105716
0.000105068
0.000104472
0.000104032
0.000103882
0.000104194
0.000105161
0.000106972
0.000109764
0.000113584
0.000118359
0.000123894
0.000129912
0.000136106
0.000142209
0.000148027
0.000153144
9.23214e-05
9.56745e-05
9.70711e-05
9.76677e-05
9.79517e-05
9.81227e-05
9.8259e-05
9.83882e-05
9.85169e-05
9.86434e-05
9.87625e-05
9.8868e-05
9.89528e-05
9.9009e-05
9.90306e-05
9.90096e-05
9.89375e-05
9.87178e-05
9.83287e-05
9.78625e-05
9.7329e-05
9.67329e-05
9.60718e-05
9.53672e-05
9.46605e-05
9.40184e-05
9.35488e-05
9.33977e-05
9.37514e-05
9.48237e-05
9.68237e-05
9.99082e-05
0.000104133
0.000109418
0.000115551
0.000122225
0.000129106
0.000135901
0.000142315
0.00014799
8.33149e-05
8.67671e-05
8.82323e-05
8.88685e-05
8.91714e-05
8.93475e-05
8.94799e-05
8.95991e-05
8.97134e-05
8.98222e-05
8.99205e-05
9.0002e-05
9.00596e-05
9.00852e-05
9.00718e-05
9.00105e-05
8.98732e-05
8.95101e-05
8.90621e-05
8.85371e-05
8.79411e-05
8.7281e-05
8.65617e-05
8.58068e-05
8.50607e-05
8.43949e-05
8.39225e-05
8.38011e-05
8.42343e-05
8.54574e-05
8.77023e-05
9.11433e-05
9.58407e-05
0.000101704
0.000108495
0.000115875
0.00012348
0.000131001
0.00013801
0.000144255
7.50307e-05
7.85302e-05
8.00452e-05
8.07166e-05
8.10403e-05
8.12258e-05
8.13596e-05
8.14746e-05
8.15805e-05
8.16774e-05
8.17604e-05
8.18231e-05
8.18579e-05
8.18564e-05
8.18107e-05
8.17105e-05
8.14133e-05
8.09897e-05
8.04867e-05
7.99066e-05
7.92554e-05
7.85432e-05
7.77808e-05
7.6994e-05
7.62301e-05
7.55655e-05
7.51199e-05
7.50643e-05
7.56219e-05
7.70529e-05
7.96137e-05
8.34947e-05
8.87558e-05
9.52865e-05
0.000102813
0.000110958
0.000119329
0.000127608
0.000135223
0.000142015
6.74262e-05
7.09248e-05
7.2471e-05
7.31727e-05
7.35185e-05
7.37175e-05
7.38582e-05
7.39749e-05
7.40783e-05
7.41688e-05
7.42416e-05
7.42897e-05
7.4305e-05
7.42786e-05
7.42011e-05
7.39772e-05
7.3583e-05
7.31054e-05
7.25501e-05
7.19203e-05
7.12243e-05
7.04745e-05
6.96862e-05
6.88879e-05
6.81293e-05
6.74921e-05
6.71051e-05
6.7155e-05
6.78891e-05
6.95964e-05
7.25604e-05
7.69863e-05
8.29265e-05
9.02384e-05
9.85999e-05
0.000107585
0.000116771
0.000125772
0.000134011
0.000141342
6.046e-05
6.39144e-05
6.54743e-05
6.62013e-05
6.657e-05
6.67864e-05
6.6939e-05
6.7063e-05
6.71693e-05
6.72583e-05
6.73248e-05
6.7361e-05
6.73581e-05
6.73063e-05
6.71483e-05
6.67892e-05
6.63356e-05
6.58052e-05
6.52017e-05
6.45308e-05
6.3803e-05
6.30324e-05
6.22374e-05
6.14486e-05
6.07187e-05
6.01356e-05
5.98396e-05
6.00379e-05
6.10067e-05
6.30699e-05
6.65415e-05
7.16399e-05
7.84012e-05
8.66353e-05
9.59547e-05
0.000105873
0.000115935
0.000125643
0.000134485
0.000142329
5.40921e-05
5.74649e-05
5.90227e-05
5.97701e-05
6.01623e-05
6.03995e-05
6.05686e-05
6.07046e-05
6.08181e-05
6.09092e-05
6.09715e-05
6.09964e-05
6.09738e-05
6.0876e-05
6.05542e-05
6.01267e-05
5.9619e-05
5.90396e-05
5.83955e-05
5.76956e-05
5.69517e-05
5.61787e-05
5.53966e-05
5.46379e-05
5.39588e-05
5.34553e-05
5.3283e-05
5.36744e-05
5.49423e-05
5.74525e-05
6.1554e-05
6.74762e-05
7.5228e-05
8.45537e-05
9.49797e-05
0.000105945
0.000116973
0.000127385
0.000136769
0.000145083
4.82843e-05
5.15447e-05
5.30869e-05
5.385e-05
5.42661e-05
5.45266e-05
5.47158e-05
5.48676e-05
5.49911e-05
5.50857e-05
5.51434e-05
5.51543e-05
5.51064e-05
5.48284e-05
5.44293e-05
5.39446e-05
5.33863e-05
5.27653e-05
5.20924e-05
5.13785e-05
5.06357e-05
4.98787e-05
4.91283e-05
4.84186e-05
4.78104e-05
4.74102e-05
4.73933e-05
4.80247e-05
4.96622e-05
5.27224e-05
5.75945e-05
6.45162e-05
7.3456e-05
8.40703e-05
9.57762e-05
0.000107923
0.000119974
0.000131069
0.000140959
0.000149712
4.29996e-05
4.6124e-05
4.76395e-05
4.84143e-05
4.88542e-05
4.914e-05
4.93518e-05
4.95212e-05
4.96553e-05
4.9752e-05
4.98013e-05
4.97912e-05
4.95708e-05
4.92006e-05
4.87389e-05
4.82001e-05
4.75984e-05
4.69479e-05
4.62612e-05
4.55498e-05
4.48253e-05
4.41016e-05
4.33992e-05
4.27545e-05
4.22344e-05
4.19589e-05
4.21284e-05
4.30488e-05
4.51332e-05
4.88592e-05
5.46622e-05
6.2784e-05
7.31361e-05
8.52619e-05
9.84431e-05
0.000111918
0.000124993
0.000136776
0.00014715
0.000156325
3.82028e-05
4.11743e-05
4.26548e-05
4.34382e-05
4.39016e-05
4.42135e-05
4.44486e-05
4.46353e-05
4.47777e-05
4.48715e-05
4.49038e-05
4.47472e-05
4.44069e-05
4.3966e-05
4.34446e-05
4.2859e-05
4.22262e-05
4.15616e-05
4.08779e-05
4.01857e-05
3.94952e-05
3.8819e-05
3.81778e-05
3.76106e-05
3.71925e-05
3.70607e-05
3.74473e-05
3.87083e-05
4.13247e-05
4.58464e-05
5.27609e-05
6.2308e-05
7.43224e-05
8.82047e-05
0.000103076
0.000118059
0.000132166
0.0001446
0.000155435
0.000165031
3.38601e-05
3.66686e-05
3.81085e-05
3.88979e-05
3.93839e-05
3.97214e-05
3.99785e-05
4.01793e-05
4.03238e-05
4.0405e-05
4.03226e-05
4.00193e-05
3.9598e-05
3.90908e-05
3.85177e-05
3.78984e-05
3.72508e-05
3.65892e-05
3.5925e-05
3.52669e-05
3.46231e-05
3.40052e-05
3.34344e-05
3.29535e-05
3.2648e-05
3.26767e-05
3.33111e-05
3.49681e-05
3.82102e-05
4.36728e-05
5.19003e-05
6.31222e-05
7.70713e-05
9.29722e-05
0.000109759
0.000126431
0.00014151
0.00015458
0.000165885
0.000175928
2.99391e-05
3.25805e-05
3.39767e-05
3.47699e-05
3.5277e-05
3.5638e-05
3.5913e-05
3.61212e-05
3.62572e-05
3.6264e-05
3.60057e-05
3.56093e-05
3.51158e-05
3.45521e-05
3.39422e-05
3.33066e-05
3.2662e-05
3.20203e-05
3.13902e-05
3.0778e-05
3.01901e-05
2.96372e-05
2.91417e-05
2.8752e-05
2.85666e-05
2.87711e-05
2.96844e-05
3.17973e-05
3.57686e-05
4.23327e-05
5.20957e-05
6.52639e-05
8.14385e-05
9.96302e-05
0.000118548
0.000136877
0.000152985
0.000166729
0.000178557
0.000189094
2.64085e-05
2.8884e-05
3.02355e-05
3.10307e-05
3.15562e-05
3.19363e-05
3.22222e-05
3.24269e-05
3.25383e-05
3.23382e-05
3.19737e-05
3.14983e-05
3.09438e-05
3.03404e-05
2.97131e-05
2.90808e-05
2.84569e-05
2.78499e-05
2.72653e-05
2.6707e-05
2.61799e-05
2.56944e-05
2.52753e-05
2.49781e-05
2.49175e-05
2.53116e-05
2.65362e-05
2.91696e-05
3.39836e-05
4.18254e-05
5.3365e-05
6.8769e-05
8.74717e-05
0.000108232
0.00012953
0.000149443
0.000166584
0.000181055
0.000193486
0.000204581
2.32386e-05
2.55534e-05
2.68604e-05
2.76554e-05
2.81956e-05
2.85881e-05
2.88742e-05
2.90604e-05
2.89794e-05
2.86655e-05
2.82165e-05
2.76751e-05
2.70786e-05
2.64576e-05
2.58348e-05
2.52251e-05
2.46376e-05
2.40769e-05
2.35455e-05
2.30449e-05
2.25792e-05
2.21594e-05
2.18139e-05
2.16072e-05
2.16739e-05
2.22706e-05
2.38404e-05
2.70636e-05
3.28426e-05
4.21512e-05
5.57231e-05
7.36636e-05
9.51988e-05
0.000118792
0.000142647
0.000164028
0.000182237
0.000197532
0.000210678
0.000222389
2.04015e-05
2.25636e-05
2.38257e-05
2.46178e-05
2.51678e-05
2.55632e-05
2.58352e-05
2.59044e-05
2.56555e-05
2.52474e-05
2.47271e-05
2.41412e-05
2.35278e-05
2.29141e-05
2.23178e-05
2.17482e-05
2.12096e-05
2.0703e-05
2.0228e-05
1.97847e-05
1.9377e-05
1.90175e-05
1.87393e-05
1.86184e-05
1.88129e-05
1.96245e-05
2.15743e-05
2.54606e-05
3.23336e-05
4.33063e-05
5.91731e-05
7.99512e-05
0.000104615
0.000131279
0.000157435
0.000180437
0.000199835
0.000216107
0.000230093
0.000242451
1.787e-05
1.98879e-05
2.11051e-05
2.18918e-05
2.24443e-05
2.283e-05
2.30703e-05
2.29253e-05
2.25676e-05
2.20794e-05
2.15108e-05
2.09087e-05
2.03067e-05
1.97255e-05
1.91756e-05
1.86604e-05
1.81795e-05
1.77305e-05
1.73109e-05
1.69204e-05
1.65634e-05
1.62553e-05
1.60356e-05
1.59935e-05
1.63146e-05
1.73527e-05
1.97181e-05
2.43424e-05
3.24407e-05
4.52753e-05
6.36944e-05
8.75962e-05
0.000115666
0.000145711
0.000173896
0.000198531
0.000219253
0.000236684
0.000251624
0.000264645
1.56173e-05
1.74999e-05
1.86726e-05
1.94511e-05
1.99956e-05
2.03569e-05
2.04162e-05
2.01506e-05
1.97089e-05
1.91671e-05
1.85823e-05
1.79962e-05
1.74344e-05
1.69086e-05
1.64216e-05
1.59709e-05
1.55517e-05
1.51593e-05
1.47901e-05
1.44441e-05
1.41275e-05
1.38594e-05
1.3687e-05
1.37152e-05
1.41608e-05
1.54366e-05
1.82526e-05
2.36883e-05
3.31383e-05
4.80216e-05
6.92284e-05
9.65021e-05
0.000128152
0.000161139
0.000191622
0.000218052
0.000240302
0.000259117
0.000275035
0.000288167
1.36175e-05
1.53739e-05
1.65026e-05
1.72684e-05
1.77918e-05
1.80856e-05
1.79469e-05
1.75854e-05
1.70853e-05
1.65256e-05
1.5961e-05
1.5424e-05
1.49288e-05
1.44774e-05
1.40649e-05
1.36835e-05
1.33253e-05
1.2984e-05
1.26564e-05
1.23437e-05
1.20548e-05
1.18136e-05
1.16764e-05
1.17656e-05
1.23333e-05
1.3857e-05
1.71563e-05
2.34706e-05
3.43851e-05
5.14769e-05
7.56635e-05
0.000106512
0.000141972
0.000177583
0.000210342
0.000238702
0.000262726
0.000282915
0.000299295
0.000312999
1.18464e-05
1.34851e-05
1.45706e-05
1.53156e-05
1.58042e-05
1.59162e-05
1.56662e-05
1.52333e-05
1.47109e-05
1.41741e-05
1.36672e-05
1.32093e-05
1.28023e-05
1.24385e-05
1.21061e-05
1.17933e-05
1.14903e-05
1.11908e-05
1.08928e-05
1.05999e-05
1.03247e-05
1.00968e-05
9.9825e-06
1.01241e-05
1.08114e-05
1.25924e-05
1.64033e-05
2.36516e-05
3.61178e-05
5.55314e-05
8.28122e-05
0.000117281
0.000155975
0.000194432
0.000229576
0.000260073
0.00028603
0.000306721
0.000324367
0.000338787
1.02812e-05
1.181e-05
1.28532e-05
1.35652e-05
1.39811e-05
1.39062e-05
1.35722e-05
1.31052e-05
1.26041e-05
1.2132e-05
1.17169e-05
1.13624e-05
1.10581e-05
1.07877e-05
1.05342e-05
1.02835e-05
1.00254e-05
9.75485e-06
9.47227e-06
9.18462e-06
8.90884e-06
8.68118e-06
8.57893e-06
8.76537e-06
9.57097e-06
1.16171e-05
1.5961e-05
2.41805e-05
3.82476e-05
6.003e-05
9.04245e-05
0.000128425
0.000170041
0.000211194
0.000248741
0.000281702
0.000308376
0.000330456
0.000349666
0.000364979
8.90091e-06
1.03273e-05
1.13259e-05
1.19929e-05
1.22386e-05
1.20579e-05
1.16726e-05
1.12176e-05
1.07836e-05
1.04143e-05
1.01179e-05
9.88243e-06
9.68657e-06
9.50746e-06
9.32505e-06
9.12447e-06
8.89694e-06
8.64e-06
8.35749e-06
8.06052e-06
7.77105e-06
7.53236e-06
7.43351e-06
7.65979e-06
8.58351e-06
1.0901e-05
1.579e-05
2.49933e-05
4.06594e-05
6.47675e-05
9.81526e-05
0.000139025
0.000183471
0.000227127
0.000266922
0.00030206
0.00032929
0.000353259
0.000374202
0.000390824
7.68622e-06
9.01778e-06
9.96506e-06
1.05746e-05
1.06287e-05
1.03727e-05
9.98147e-06
9.58853e-06
9.26411e-06
9.02731e-06
8.86641e-06
8.75532e-06
8.6644e-06
8.56668e-06
8.44121e-06
8.2744e-06
8.06033e-06
7.80028e-06
7.50246e-06
7.18267e-06
6.86836e-06
6.61014e-06
6.50921e-06
6.77332e-06
7.81678e-06
1.04096e-05
1.58445e-05
2.60154e-05
4.32189e-05
6.94869e-05
0.000105428
0.000148821
0.000195679
0.000241466
0.000283295
0.00031947
0.000347895
0.000373711
0.000396504
0.000415229
6.61935e-06
7.86241e-06
8.75052e-06
9.20886e-06
9.1542e-06
8.86176e-06
8.51661e-06
8.23323e-06
8.05195e-06
7.96589e-06
7.94531e-06
7.95335e-06
7.95505e-06
7.92202e-06
7.83455e-06
7.68209e-06
7.46285e-06
7.18289e-06
6.85539e-06
6.50132e-06
6.1538e-06
5.87094e-06
5.76612e-06
6.06943e-06
7.2361e-06
1.01058e-05
1.60754e-05
2.71684e-05
4.57982e-05
7.40055e-05
0.000111896
0.000157341
0.000206026
0.000253312
0.00029643
0.000333033
0.00036265
0.000389858
0.000414407
0.000436335
0.000423415
0.000423522
0.000423616
0.000423701
0.000423776
0.000423841
0.000423894
0.000423935
0.000423964
0.000423979
0.000423979
0.000423964
0.000423935
0.000423894
0.000423841
0.000423776
0.000423701
0.000423616
0.000423522
0.000423415
0.000399799
0.000399994
0.00040017
0.00040032
0.000400455
0.000400575
0.000400675
0.000400754
0.000400809
0.000400842
0.000400842
0.000400809
0.000400754
0.000400675
0.000400575
0.000400455
0.00040032
0.00040017
0.000399994
0.000399799
0.000376947
0.000377244
0.000377513
0.000377756
0.000377965
0.000378152
0.000378313
0.000378439
0.000378529
0.000378581
0.000378581
0.000378529
0.000378439
0.000378313
0.000378152
0.000377965
0.000377756
0.000377513
0.000377244
0.000376947
0.000354901
0.000355314
0.000355692
0.000356048
0.000356355
0.000356627
0.000356864
0.000357053
0.000357188
0.000357266
0.000357266
0.000357188
0.000357053
0.000356864
0.000356627
0.000356355
0.000356048
0.000355692
0.000355314
0.000354901
0.000333703
0.00033425
0.000334754
0.00033523
0.00033567
0.000336045
0.000336373
0.000336638
0.000336829
0.000336939
0.000336939
0.000336829
0.000336638
0.000336373
0.000336045
0.00033567
0.00033523
0.000334754
0.00033425
0.000333703
0.000313404
0.000314102
0.000314746
0.000315357
0.000315949
0.000316443
0.000316878
0.000317231
0.000317487
0.000317635
0.000317635
0.000317487
0.000317231
0.000316878
0.000316443
0.000315949
0.000315357
0.000314746
0.000314102
0.000313404
0.000294058
0.000294923
0.000295722
0.000296481
0.000297217
0.000297861
0.000298415
0.000298868
0.000299196
0.000299386
0.000299386
0.000299196
0.000298868
0.000298415
0.000297861
0.000297217
0.000296481
0.000295722
0.000294923
0.000294058
0.000275723
0.000276771
0.000277738
0.000278656
0.000279544
0.00028034
0.000281023
0.000281583
0.000281989
0.000282225
0.000282225
0.000281989
0.000281583
0.000281023
0.00028034
0.000279544
0.000278656
0.000277738
0.000276771
0.000275723
0.000258458
0.000259704
0.000260851
0.000261936
0.000262986
0.000263922
0.000264743
0.000265416
0.000265907
0.000266191
0.000266191
0.000265907
0.000265416
0.000264743
0.000263922
0.000262986
0.000261936
0.000260851
0.000259704
0.000258458
0.000242312
0.000243775
0.000245115
0.000246379
0.000247577
0.000248656
0.000249619
0.000250412
0.00025099
0.000251325
0.000251325
0.00025099
0.000250412
0.000249619
0.000248656
0.000247577
0.000246379
0.000245116
0.000243775
0.000242312
0.000227337
0.000229037
0.000230586
0.000232037
0.000233348
0.000234587
0.000235699
0.000236615
0.000237284
0.000237672
0.000237672
0.000237284
0.000236615
0.000235699
0.000234587
0.000233348
0.000232037
0.000230586
0.000229037
0.000227337
0.000213575
0.000215535
0.000217309
0.00021888
0.000220358
0.000221766
0.000223029
0.000224072
0.000224834
0.000225277
0.000225277
0.000224834
0.000224072
0.000223029
0.000221766
0.000220358
0.00021888
0.000217309
0.000215535
0.000213575
0.000201062
0.000203308
0.000205231
0.000206987
0.000208654
0.000210236
0.000211656
0.000212828
0.000213686
0.000214185
0.000214185
0.000213686
0.000212828
0.000211656
0.000210236
0.000208654
0.000206987
0.000205231
0.000203308
0.000201062
0.000189826
0.000192286
0.000194435
0.000196411
0.00019828
0.000200043
0.000201622
0.000202926
0.00020388
0.000204437
0.000204437
0.00020388
0.000202926
0.000201622
0.000200043
0.00019828
0.000196411
0.000194435
0.000192286
0.000189826
0.000179813
0.000182552
0.000184972
0.000187189
0.000189272
0.000191224
0.000192967
0.000194404
0.000195456
0.00019607
0.00019607
0.000195456
0.000194404
0.000192967
0.000191224
0.000189272
0.000187189
0.000184972
0.000182552
0.000179813
0.000171075
0.000174153
0.000176873
0.000179352
0.000181665
0.000183814
0.000185725
0.000187297
0.000188446
0.000189118
0.000189118
0.000188446
0.000187297
0.000185725
0.000183814
0.000181665
0.000179352
0.000176873
0.000174154
0.000171075
0.000163659
0.000167116
0.000170163
0.000172928
0.000175487
0.000177845
0.000179928
0.000181635
0.000182881
0.000183609
0.000183609
0.000182881
0.000181635
0.000179928
0.000177845
0.000175487
0.000172928
0.000170163
0.000167116
0.000163659
0.000157601
0.000161465
0.000164868
0.000167942
0.000170768
0.000173347
0.000175606
0.000177447
0.000178787
0.00017957
0.00017957
0.000178787
0.000177447
0.000175606
0.000173347
0.000170768
0.000167942
0.000164868
0.000161465
0.000157601
0.000152935
0.000157229
0.000161015
0.000164427
0.00016754
0.000170351
0.000172789
0.000174762
0.000176194
0.000177028
0.000177028
0.000176194
0.000174762
0.000172789
0.000170351
0.00016754
0.000164427
0.000161015
0.000157229
0.000152935
0.000149702
0.000154448
0.000158642
0.000162419
0.000165839
0.000168892
0.000171511
0.000173614
0.000175132
0.000176014
0.000176014
0.000175132
0.000173614
0.000171511
0.000168892
0.000165839
0.000162419
0.000158642
0.000154448
0.000149702
0.000147961
0.000153171
0.000157799
0.000161965
0.000165711
0.000169015
0.000171814
0.00017404
0.000175637
0.000176562
0.000176562
0.000175637
0.00017404
0.000171814
0.000169015
0.000165711
0.000161965
0.000157799
0.000153171
0.000147961
0.000147782
0.000153465
0.000158548
0.000163125
0.000167211
0.000170769
0.000173742
0.000176083
0.000177752
0.000178712
0.000178712
0.000177752
0.000176083
0.000173742
0.000170769
0.000167211
0.000163125
0.000158548
0.000153465
0.000147782
0.00014925
0.000155414
0.000160967
0.000165971
0.000170404
0.000174211
0.000177349
0.000179792
0.000181522
0.000182511
0.000182511
0.000181522
0.000179792
0.000177349
0.000174211
0.000170404
0.000165971
0.000160967
0.000155414
0.00014925
0.000152468
0.000159115
0.00016515
0.000170586
0.000175359
0.000179404
0.000182689
0.000185217
0.000186994
0.000188003
0.000188003
0.000186994
0.000185217
0.000182689
0.000179404
0.000175359
0.000170586
0.00016515
0.000159115
0.000152468
0.000157549
0.000164679
0.000171199
0.000177057
0.00018215
0.000186404
0.000189811
0.000192403
0.000194211
0.000195229
0.000195229
0.000194211
0.000192403
0.000189811
0.000186404
0.00018215
0.000177057
0.000171199
0.000164679
0.000157549
0.00016461
0.000172224
0.000179215
0.000185467
0.000190836
0.000195259
0.000198752
0.00020138
0.000203198
0.000204215
0.000204215
0.000203198
0.00020138
0.000198752
0.000195259
0.000190836
0.000185467
0.000179215
0.000172224
0.00016461
0.000173769
0.000181859
0.00018929
0.000195877
0.000201459
0.000205991
0.000209521
0.00021215
0.000213954
0.000214955
0.000214955
0.000213954
0.00021215
0.000209521
0.000205991
0.000201459
0.000195877
0.00018929
0.000181859
0.000173769
0.000185132
0.000193674
0.000201482
0.000208315
0.000214017
0.000218581
0.000222089
0.000224674
0.000226435
0.000227404
0.000227404
0.000226435
0.000224674
0.000222089
0.000218581
0.000214017
0.000208315
0.000201482
0.000193674
0.000185132
0.000198773
0.000207714
0.000215798
0.000222751
0.000228453
0.000232953
0.000236366
0.000238855
0.000240538
0.000241459
0.000241459
0.000240538
0.000238855
0.000236366
0.000232953
0.000228453
0.000222751
0.000215798
0.000207714
0.000198773
0.000214722
0.000223961
0.000232175
0.000239083
0.000244641
0.000248965
0.000252199
0.000254532
0.0002561
0.000256955
0.000256955
0.0002561
0.000254532
0.000252199
0.000248965
0.000244641
0.000239083
0.000232175
0.000223961
0.000214722
0.000232938
0.000242313
0.00025047
0.000257129
0.00026237
0.000266382
0.000269352
0.000271477
0.000272893
0.000273664
0.000273664
0.000272893
0.000271477
0.000269352
0.000266382
0.00026237
0.000257129
0.00025047
0.000242313
0.000232938
0.000253311
0.000262588
0.000270334
0.000276552
0.000281354
0.000284953
0.000287575
0.000289425
0.000290645
0.000291309
0.000291309
0.000290645
0.000289425
0.000287575
0.000284953
0.000281354
0.000276552
0.000270334
0.000262588
0.000253311
0.00027539
0.000284307
0.00029151
0.000297107
0.000301305
0.000304368
0.000306549
0.000308059
0.000309045
0.000309581
0.000309581
0.000309045
0.000308059
0.000306549
0.000304368
0.000301305
0.000297107
0.00029151
0.000284307
0.00027539
0.000298901
0.000307273
0.000313685
0.000318441
0.000321865
0.000324273
0.000325933
0.000327055
0.000327778
0.000328174
0.000328174
0.000327778
0.000327055
0.000325933
0.000324273
0.000321865
0.000318441
0.000313685
0.000307273
0.000298901
0.000323611
0.000331129
0.000336456
0.000340148
0.000342651
0.000344314
0.000345403
0.00034611
0.000346559
0.000346812
0.000346812
0.000346559
0.00034611
0.000345403
0.000344314
0.000342651
0.000340148
0.000336456
0.000331129
0.000323611
0.00034916
0.000355447
0.00035938
0.000361813
0.000363292
0.000364169
0.000364679
0.000364978
0.000365162
0.000365281
0.000365281
0.000365162
0.000364978
0.000364679
0.000364169
0.000363292
0.000361813
0.00035938
0.000355447
0.00034916
0.000375176
0.000379774
0.000381997
0.00038303
0.000383457
0.000383573
0.000383547
0.000383481
0.000383435
0.000383438
0.000383438
0.000383435
0.000383481
0.000383547
0.000383573
0.000383457
0.00038303
0.000381997
0.000379774
0.000375176
0.000401383
0.000403625
0.000403816
0.000403405
0.000402857
0.000402325
0.000401869
0.000401524
0.000401306
0.000401222
0.000401222
0.000401306
0.000401524
0.000401869
0.000402325
0.000402857
0.000403405
0.000403816
0.000403625
0.000401383
0.000427907
0.000426398
0.000424257
0.000422546
0.000421262
0.0004203
0.000419588
0.000419087
0.000418778
0.00041865
0.00041865
0.000418778
0.000419087
0.000419588
0.0004203
0.000421262
0.000422546
0.000424257
0.000426398
0.000427907
0.000456718
0.000446897
0.000442533
0.000440083
0.00043853
0.000437473
0.000436737
0.000436237
0.000435931
0.000435806
0.000435806
0.000435931
0.000436237
0.000436737
0.000437473
0.00043853
0.000440083
0.000442533
0.000446897
0.000456718
0.000423297
0.000423168
0.00042303
0.000422884
0.00042273
0.000422567
0.000422399
0.000422229
0.000422059
0.000421891
0.000421727
0.000421566
0.000421409
0.000421254
0.000421101
0.00042095
0.0004208
0.000420652
0.000420504
0.000420355
0.000420209
0.000420068
0.000419931
0.000419799
0.000419673
0.000419552
0.000419438
0.00041933
0.00041923
0.000419136
0.00041905
0.000418972
0.000418901
0.000418839
0.000418785
0.000418728
0.00041866
0.00041859
0.000418611
0.000418745
0.000399583
0.000399348
0.000399093
0.000398821
0.000398535
0.000398234
0.000397929
0.000397623
0.000397321
0.000397032
0.000396755
0.000396491
0.000396238
0.000395993
0.000395753
0.000395517
0.000395281
0.000395047
0.000394811
0.000394563
0.00039432
0.000394083
0.000393854
0.000393632