/*--------------------------------*- C++ -*----------------------------------*\
  =========                 |
  \\      /  F ield         | OpenFOAM: The Open Source CFD Toolbox
   \\    /   O peration     | Website:  https://openfoam.org
    \\  /    A nd           | Version:  6
     \\/     M anipulation  |
\*---------------------------------------------------------------------------*/
FoamFile
{
    version     2.0;
    format      ascii;
    class       volVectorField;
    location    "30";
    object      U;
}
// * * * * * * * * * * * * * * * * * * * * * * * * * * * * * * * * * * * * * //

dimensions      [0 1 -1 0 0 0 0];

internalField   nonuniform List<vector> 
8800
(
(-5.44409e-05 -0.0019332 0)
(-9.76923e-05 -0.00262214 0)
(-7.47369e-05 -0.0027178 0)
(-5.28862e-05 -0.00273122 0)
(-4.43201e-05 -0.00273341 0)
(-4.3728e-05 -0.00273255 0)
(-4.6796e-05 -0.00273078 0)
(-5.16174e-05 -0.00272986 0)
(-5.74296e-05 -0.00272971 0)
(-6.38219e-05 -0.00273012 0)
(-7.05401e-05 -0.00273098 0)
(-7.7413e-05 -0.00273224 0)
(-8.43078e-05 -0.00273389 0)
(-9.11047e-05 -0.00273594 0)
(-9.76836e-05 -0.00273841 0)
(-0.000103917 -0.00274132 0)
(-0.000109666 -0.0027447 0)
(-0.000114779 -0.00274859 0)
(-0.000119093 -0.00275301 0)
(-0.00012244 -0.00275799 0)
(-0.000124664 -0.00276348 0)
(-0.000125616 -0.00276924 0)
(-0.000125083 -0.00277422 0)
(-0.000122641 -0.00277915 0)
(-0.000117998 -0.00278443 0)
(-0.000110928 -0.00279018 0)
(-0.0001013 -0.00279645 0)
(-8.91516e-05 -0.00280325 0)
(-7.47456e-05 -0.00281055 0)
(-5.85855e-05 -0.00281827 0)
(-4.14045e-05 -0.00282628 0)
(-2.41178e-05 -0.00283441 0)
(-7.76734e-06 -0.00284236 0)
(6.89443e-06 -0.00284906 0)
(1.93765e-05 -0.00285433 0)
(2.95182e-05 -0.00285786 0)
(3.75694e-05 -0.00285958 0)
(4.38545e-05 -0.0028609 0)
(4.83721e-05 -0.00286241 0)
(5.12285e-05 -0.00286411 0)
(2.1793e-05 0.000108232 0)
(2.48321e-05 0.000141213 0)
(-2.04606e-05 0.000166704 0)
(-5.67859e-05 0.000186214 0)
(-8.1528e-05 0.000198673 0)
(-0.000102113 0.000205443 0)
(-0.000121601 0.000208975 0)
(-0.000140908 0.00021169 0)
(-0.000160361 0.000214087 0)
(-0.000180007 0.000216297 0)
(-0.000199732 0.000218361 0)
(-0.000219347 0.000220288 0)
(-0.000238632 0.000222068 0)
(-0.000257339 0.000223676 0)
(-0.000275195 0.000225079 0)
(-0.000291898 0.000226237 0)
(-0.000307119 0.000227105 0)
(-0.000320504 0.000227638 0)
(-0.000331682 0.000227791 0)
(-0.000340271 0.000227528 0)
(-0.000345874 0.000226809 0)
(-0.000348063 0.000225497 0)
(-0.000346649 0.000222988 0)
(-0.000341103 0.000219394 0)
(-0.000330856 0.000214878 0)
(-0.000315481 0.000209572 0)
(-0.000294787 0.000203725 0)
(-0.000268898 0.000197716 0)
(-0.000238311 0.000192008 0)
(-0.000203911 0.000187106 0)
(-0.000166932 0.000183478 0)
(-0.000128817 0.000181447 0)
(-9.10257e-05 0.000181317 0)
(-5.5037e-05 0.000183386 0)
(-2.21358e-05 0.000187411 0)
(6.87612e-06 0.000192946 0)
(3.10035e-05 0.000199195 0)
(5.02081e-05 0.000205111 0)
(6.49478e-05 0.000210118 0)
(7.5757e-05 0.000214171 0)
(1.50609e-05 0.000168501 0)
(1.01513e-05 0.000224223 0)
(-3.72221e-05 0.000224787 0)
(-8.53765e-05 0.000222261 0)
(-0.000125662 0.000221721 0)
(-0.000161568 0.000221883 0)
(-0.000195584 0.000222019 0)
(-0.000228669 0.000221977 0)
(-0.000261148 0.000221621 0)
(-0.000293108 0.000220887 0)
(-0.000324471 0.000219751 0)
(-0.000355047 0.000218203 0)
(-0.000384572 0.000216224 0)
(-0.000412724 0.000213789 0)
(-0.000439136 0.000210861 0)
(-0.000463399 0.000207403 0)
(-0.00048507 0.000203379 0)
(-0.000503681 0.000198758 0)
(-0.000518743 0.000193527 0)
(-0.00052976 0.000187698 0)
(-0.000536234 0.000181302 0)
(-0.000537752 0.000174258 0)
(-0.000534104 0.000166093 0)
(-0.000524783 0.000156875 0)
(-0.000509316 0.000146864 0)
(-0.000487361 0.000136486 0)
(-0.00045887 0.000126351 0)
(-0.000424138 0.000117234 0)
(-0.000383846 0.000109976 0)
(-0.000339058 0.000105392 0)
(-0.000291177 0.000104123 0)
(-0.000241829 0.00010644 0)
(-0.00019271 0.000112257 0)
(-0.000145485 0.000120907 0)
(-0.000101629 0.00013146 0)
(-6.21281e-05 0.000142759 0)
(-2.75441e-05 0.000153669 0)
(2.04416e-06 0.000163655 0)
(2.66146e-05 0.00017239 0)
(4.64738e-05 0.000179874 0)
(-4.59056e-06 5.08379e-05 0)
(-2.82719e-05 7.96511e-05 0)
(-7.21247e-05 7.82358e-05 0)
(-0.000120895 7.29537e-05 0)
(-0.000168853 6.94554e-05 0)
(-0.000215409 6.76912e-05 0)
(-0.000260721 6.68809e-05 0)
(-0.000304901 6.64152e-05 0)
(-0.000347964 6.58499e-05 0)
(-0.000389853 6.48953e-05 0)
(-0.00043042 6.33676e-05 0)
(-0.000469433 6.11384e-05 0)
(-0.000506586 5.81016e-05 0)
(-0.000541517 5.41576e-05 0)
(-0.000573815 4.92103e-05 0)
(-0.000603035 4.31706e-05 0)
(-0.000628703 3.59578e-05 0)
(-0.000650331 2.75076e-05 0)
(-0.000667425 1.77875e-05 0)
(-0.000679505 6.8202e-06 0)
(-0.000686136 -5.2954e-06 0)
(-0.000686983 -1.83856e-05 0)
(-0.000681601 -3.23229e-05 0)
(-0.000669591 -4.77746e-05 0)
(-0.000650644 -6.44888e-05 0)
(-0.000624611 -8.18568e-05 0)
(-0.000591592 -9.90153e-05 0)
(-0.000551995 -0.000114886 0)
(-0.000506567 -0.000128304 0)
(-0.000456397 -0.000138136 0)
(-0.000402874 -0.000143472 0)
(-0.000347605 -0.00014386 0)
(-0.00029228 -0.000139311 0)
(-0.000238531 -0.000130518 0)
(-0.000187782 -0.000118532 0)
(-0.000141091 -0.000104618 0)
(-9.91326e-05 -9.0145e-05 0)
(-6.22065e-05 -7.60592e-05 0)
(-3.03522e-05 -6.2935e-05 0)
(-3.4027e-06 -5.10728e-05 0)
(-1.05431e-05 6.47255e-05 0)
(-4.30155e-05 0.000112507 0)
(-9.17591e-05 0.000124843 0)
(-0.000146231 0.00012532 0)
(-0.000201774 0.000123347 0)
(-0.000256894 0.000121581 0)
(-0.000310921 0.0001203 0)
(-0.000363526 0.000119182 0)
(-0.000414512 0.00011784 0)
(-0.000463696 0.000115953 0)
(-0.00051086 0.000113272 0)
(-0.00055573 0.000109601 0)
(-0.000597982 0.000104771 0)
(-0.000637242 9.8632e-05 0)
(-0.000673102 9.10475e-05 0)
(-0.000705129 8.18997e-05 0)
(-0.000732874 7.10903e-05 0)
(-0.000755885 5.85494e-05 0)
(-0.000773721 4.42517e-05 0)
(-0.000785967 2.82383e-05 0)
(-0.000792258 1.06249e-05 0)
(-0.00079226 -8.453e-06 0)
(-0.000785452 -2.91805e-05 0)
(-0.000771541 -5.1853e-05 0)
(-0.000750326 -7.60573e-05 0)
(-0.000721794 -0.000100981 0)
(-0.000686139 -0.000125506 0)
(-0.000643814 -0.000148247 0)
(-0.000595569 -0.000167714 0)
(-0.000542465 -0.00018246 0)
(-0.000485848 -0.000191302 0)
(-0.00042728 -0.000193624 0)
(-0.000368418 -0.000189379 0)
(-0.000310874 -0.000179342 0)
(-0.000256063 -0.000164788 0)
(-0.000205093 -0.000147298 0)
(-0.000158712 -0.000128561 0)
(-0.000117325 -0.000109765 0)
(-8.10713e-05 -9.16936e-05 0)
(-4.98992e-05 -7.48424e-05 0)
(-1.11925e-05 9.7649e-05 0)
(-4.73757e-05 0.000170163 0)
(-0.000102147 0.000192728 0)
(-0.000162803 0.000196904 0)
(-0.000224482 0.000195526 0)
(-0.000285725 0.000192921 0)
(-0.000345706 0.00019013 0)
(-0.000403917 0.000187129 0)
(-0.000460032 0.000183641 0)
(-0.000513782 0.000179362 0)
(-0.000564893 0.00017402 0)
(-0.000613065 0.000167378 0)
(-0.00065797 0.000159231 0)
(-0.000699249 0.000149394 0)
(-0.000736521 0.00013771 0)
(-0.000769391 0.000124047 0)
(-0.000797461 0.000108304 0)
(-0.000820333 9.04206e-05 0)
(-0.000837622 7.03926e-05 0)
(-0.000848976 4.82906e-05 0)
(-0.000854082 2.42568e-05 0)
(-0.000852591 -1.59693e-06 0)
(-0.000844032 -2.95583e-05 0)
(-0.000828214 -5.96419e-05 0)
(-0.00080499 -9.1273e-05 0)
(-0.000774406 -0.000123466 0)
(-0.000736692 -0.000154882 0)
(-0.000692304 -0.000183868 0)
(-0.000641982 -0.000208639 0)
(-0.000586769 -0.000227445 0)
(-0.00052801 -0.000238847 0)
(-0.000467283 -0.000242073 0)
(-0.000406288 -0.000237038 0)
(-0.000346691 -0.000224655 0)
(-0.000289961 -0.00020646 0)
(-0.000237255 -0.000184391 0)
(-0.000189344 -0.000160521 0)
(-0.000146627 -0.00013634 0)
(-0.000109236 -0.000112856 0)
(-7.70873e-05 -9.0716e-05 0)
(-1.14556e-05 0.000125575 0)
(-4.95562e-05 0.000221049 0)
(-0.000107723 0.000252528 0)
(-0.000171897 0.000259792 0)
(-0.000236985 0.00025878 0)
(-0.000301518 0.000255158 0)
(-0.000364579 0.000250601 0)
(-0.000425553 0.000245377 0)
(-0.00048403 0.000239327 0)
(-0.000539677 0.000232187 0)
(-0.000592187 0.000223685 0)
(-0.000641247 0.000213569 0)
(-0.000686538 0.000201612 0)
(-0.000727727 0.000187615 0)
(-0.000764474 0.000171406 0)
(-0.000796436 0.000152849 0)
(-0.000823268 0.000131846 0)
(-0.000844633 0.000108346 0)
(-0.000860206 8.23615e-05 0)
(-0.000869691 5.39845e-05 0)
(-0.000872828 2.33782e-05 0)
(-0.000869224 -9.33766e-06 0)
(-0.000858514 -4.45033e-05 0)
(-0.000840526 -8.19299e-05 0)
(-0.000815148 -0.000120897 0)
(-0.000782439 -0.00016027 0)
(-0.000742626 -0.000198522 0)
(-0.000696154 -0.000233746 0)
(-0.000643753 -0.000263866 0)
(-0.000586484 -0.000286821 0)
(-0.000525741 -0.000300878 0)
(-0.000463199 -0.000305085 0)
(-0.000400683 -0.000299283 0)
(-0.000339997 -0.000284519 0)
(-0.000282727 -0.000262591 0)
(-0.00023011 -0.000235806 0)
(-0.000182925 -0.000206669 0)
(-0.000141507 -0.000176994 0)
(-0.000105892 -0.000148047 0)
(-7.5858e-05 -0.000120671 0)
(-1.14889e-05 0.000153051 0)
(-4.99371e-05 0.000272 0)
(-0.000108737 0.000312981 0)
(-0.000173579 0.00032361 0)
(-0.000239308 0.000323053 0)
(-0.000304392 0.000318393 0)
(-0.000367827 0.000311957 0)
(-0.000428929 0.000304313 0)
(-0.000487231 0.000295445 0)
(-0.000542362 0.000285147 0)
(-0.000593992 0.000273169 0)
(-0.000641811 0.000259264 0)
(-0.000685514 0.000243204 0)
(-0.000724804 0.000224788 0)
(-0.000759382 0.000203842 0)
(-0.000788957 0.000180233 0)
(-0.000813242 0.000153869 0)
(-0.000831956 0.000124708 0)
(-0.000844827 9.27722e-05 0)
(-0.000851619 5.81616e-05 0)
(-0.000852106 2.10371e-05 0)
(-0.000845795 -1.85025e-05 0)
(-0.000832479 -6.08572e-05 0)
(-0.000811924 -0.000105609 0)
(-0.000784026 -0.000151903 0)
(-0.000748834 -0.000198468 0)
(-0.000706551 -0.000243596 0)
(-0.000657604 -0.000285121 0)
(-0.000602733 -0.000320647 0)
(-0.000543049 -0.000347763 0)
(-0.000480049 -0.000364394 0)
(-0.000415571 -0.000369356 0)
(-0.000351642 -0.000362397 0)
(-0.000290285 -0.000344709 0)
(-0.000233256 -0.000318388 0)
(-0.000181913 -0.00028616 0)
(-0.000137071 -0.000251063 0)
(-9.89615e-05 -0.000215278 0)
(-6.74745e-05 -0.00018038 0)
(-4.22112e-05 -0.000147472 0)
(-1.10284e-05 0.000180496 0)
(-4.82275e-05 0.000323035 0)
(-0.000105315 0.000373717 0)
(-0.000168344 0.000387777 0)
(-0.000232242 0.000387631 0)
(-0.000295429 0.000381812 0)
(-0.000356848 0.000373312 0)
(-0.000415772 0.000363016 0)
(-0.0004717 0.000351057 0)
(-0.000524241 0.000337305 0)
(-0.000573057 0.000321551 0)
(-0.000617845 0.000303567 0)
(-0.000658323 0.000283141 0)
(-0.000694224 0.00026008 0)
(-0.000725294 0.000234217 0)
(-0.000751286 0.000205428 0)
(-0.000771963 0.000173627 0)
(-0.000787091 0.000138781 0)
(-0.000796447 0.000100918 0)
(-0.000799847 6.01255e-05 0)
(-0.000797071 1.6531e-05 0)
(-0.000787463 -2.97988e-05 0)
(-0.000771028 -7.92796e-05 0)
(-0.000747411 -0.000131297 0)
(-0.000716499 -0.000184882 0)
(-0.000678305 -0.00023863 0)
(-0.000633001 -0.000290645 0)
(-0.000581003 -0.000338478 0)
(-0.000523077 -0.00037937 0)
(-0.000460421 -0.000410501 0)
(-0.000394671 -0.000429399 0)
(-0.000327905 -0.000434595 0)
(-0.000262388 -0.000425715 0)
(-0.000200454 -0.000404131 0)
(-0.000144047 -0.000372263 0)
(-9.46282e-05 -0.000333297 0)
(-5.31967e-05 -0.000290961 0)
(-1.98329e-05 -0.000247891 0)
(5.78281e-06 -0.000205985 0)
(2.41461e-05 -0.000166857 0)
(-1.0117e-05 0.000206501 0)
(-4.46721e-05 0.000371629 0)
(-9.80373e-05 0.000431732 0)
(-0.000157113 0.000449134 0)
(-0.000217053 0.000449335 0)
(-0.000276259 0.00044227 0)
(-0.000333646 0.000431592 0)
(-0.000388465 0.000418501 0)
(-0.0004402 0.00040329 0)
(-0.000488451 0.000385917 0)
(-0.000532883 0.000366222 0)
(-0.000573204 0.000344014 0)
(-0.000609154 0.000319102 0)
(-0.000640498 0.000291313 0)
(-0.000667014 0.000260492 0)
(-0.000688496 0.000226524 0)
(-0.00070474 0.000189332 0)
(-0.000715546 0.000148888 0)
(-0.00072073 0.000105218 0)
(-0.000720153 5.83827e-05 0)
(-0.000713546 8.43643e-06 0)
(-0.000700149 -4.46243e-05 0)
(-0.000680072 -0.000101122 0)
(-0.000652863 -0.000160332 0)
(-0.000618382 -0.000221183 0)
(-0.000576586 -0.000282135 0)
(-0.000527624 -0.00034107 0)
(-0.000471913 -0.000395228 0)
(-0.000410269 -0.000441435 0)
(-0.000344033 -0.000476386 0)
(-0.000274982 -0.000497185 0)
(-0.000205553 -0.00050201 0)
(-0.000138149 -0.000490289 0)
(-7.55954e-05 -0.000463589 0)
(-1.99689e-05 -0.000424709 0)
(2.73911e-05 -0.000377136 0)
(6.47528e-05 -0.000325958 0)
(9.23773e-05 -0.000274268 0)
(0.00011071 -0.000224492 0)
(0.000120644 -0.000178262 0)
(-8.86109e-06 0.000230016 0)
(-3.96512e-05 0.000415949 0)
(-8.76387e-05 0.000484943 0)
(-0.000141001 0.000505558 0)
(-0.000195243 0.000506082 0)
(-0.00024878 0.000497763 0)
(-0.000300519 0.000484886 0)
(-0.000349706 0.000468969 0)
(-0.000395819 0.00045047 0)
(-0.000438459 0.000429441 0)
(-0.0004773 0.000405781 0)
(-0.000512065 0.00037934 0)
(-0.000542512 0.000349961 0)
(-0.000568432 0.000317491 0)
(-0.000589633 0.000281792 0)
(-0.000605932 0.000242756 0)
(-0.000617147 0.000200311 0)
(-0.00062309 0.000154428 0)
(-0.000623596 0.000105125 0)
(-0.000618531 5.24481e-05 0)
(-0.000607352 -3.58568e-06 0)
(-0.000589937 -6.3374e-05 0)
(-0.000565713 -0.000126841 0)
(-0.000534357 -0.000193227 0)
(-0.0004957 -0.000261372 0)
(-0.000449629 -0.000329604 0)
(-0.000396307 -0.000395509 0)
(-0.000336175 -0.000456002 0)
(-0.000270144 -0.00050746 0)
(-0.000199789 -0.000546016 0)
(-0.00012692 -0.000568283 0)
(-5.46281e-05 -0.000571984 0)
(1.51244e-05 -0.00055613 0)
(7.83825e-05 -0.000522594 0)
(0.000132972 -0.000475141 0)
(0.000177478 -0.000418162 0)
(0.000210761 -0.000356496 0)
(0.000232505 -0.00029438 0)
(0.000243144 -0.000234926 0)
(0.000243746 -0.000180183 0)
(-7.36095e-06 0.000250334 0)
(-3.35559e-05 0.000454735 0)
(-7.49103e-05 0.000531902 0)
(-0.000121214 0.000555571 0)
(-0.00016843 0.000556427 0)
(-0.000215016 0.000546905 0)
(-0.00025989 0.000531888 0)
(-0.000302306 0.000513203 0)
(-0.000341747 0.000491477 0)
(-0.00037782 0.00046686 0)
(-0.000410208 0.000439315 0)
(-0.000438649 0.00040874 0)
(-0.00046292 0.000375011 0)
(-0.000482829 0.000338002 0)
(-0.000498202 0.000297587 0)
(-0.000508874 0.000253666 0)
(-0.000514669 0.00020616 0)
(-0.000515397 0.000155025 0)
(-0.000510895 0.000100251 0)
(-0.000500987 4.18511e-05 0)
(-0.00048483 -2.01547e-05 0)
(-0.000462737 -8.65399e-05 0)
(-0.000433748 -0.000156978 0)
(-0.00039757 -0.000230577 0)
(-0.000354026 -0.000306068 0)
(-0.000302888 -0.000381679 0)
(-0.000244441 -0.000454601 0)
(-0.000179177 -0.000521425 0)
(-0.000108186 -0.000578028 0)
(-3.33759e-05 -0.000619905 0)
(4.39755e-05 -0.000642946 0)
(0.00011898 -0.000644077 0)
(0.000189931 -0.000623178 0)
(0.000253839 -0.000582025 0)
(0.00030807 -0.000524571 0)
(0.000350526 -0.000456032 0)
(0.000379863 -0.000381982 0)
(0.000395632 -0.000307516 0)
(0.000398278 -0.000236527 0)
(0.000388994 -0.000171627 0)
(-5.71693e-06 0.000266971 0)
(-2.67848e-05 0.000487088 0)
(-6.06606e-05 0.000571544 0)
(-9.89768e-05 0.000598063 0)
(-0.000138241 0.000599281 0)
(-0.000176986 0.000588659 0)
(-0.00021416 0.000571626 0)
(-0.000249036 0.000550306 0)
(-0.000281105 0.000525493 0)
(-0.000309985 0.000497438 0)
(-0.00033537 0.000466173 0)
(-0.00035701 0.000431641 0)
(-0.000374693 0.000393755 0)
(-0.000388237 0.000352412 0)
(-0.000397473 0.0003075 0)
(-0.00040224 0.000258917 0)
(-0.000402353 0.00020657 0)
(-0.000397607 0.00015038 0)
(-0.000387812 9.02733e-05 0)
(-0.000372656 2.61855e-05 0)
(-0.000351036 -4.18251e-05 0)
(-0.000323597 -0.000114748 0)
(-0.000289084 -0.000192196 0)
(-0.000247236 -0.000273083 0)
(-0.000197945 -0.000355996 0)
(-0.000140819 -0.000439136 0)
(-7.65526e-05 -0.000519132 0)
(-5.44578e-06 -0.000592461 0)
(7.09382e-05 -0.000653884 0)
(0.000149883 -0.000697899 0)
(0.00022984 -0.000720508 0)
(0.000307918 -0.000718714 0)
(0.000381268 -0.000691921 0)
(0.000446605 -0.000641897 0)
(0.00050085 -0.00057291 0)
(0.000541498 -0.000490937 0)
(0.000566952 -0.000402473 0)
(0.000576667 -0.000313573 0)
(0.000571109 -0.000229005 0)
(0.000551569 -0.000152092 0)
(-4.02669e-06 0.00027966 0)
(-1.97247e-05 0.000512465 0)
(-4.5671e-05 0.000603185 0)
(-7.54687e-05 0.000632303 0)
(-0.000106237 0.000633922 0)
(-0.000136614 0.000622339 0)
(-0.000165603 0.000603466 0)
(-0.000192502 0.000579704 0)
(-0.000216817 0.000552007 0)
(-0.000238175 0.000520729 0)
(-0.000256278 0.000485967 0)
(-0.000270883 0.000447713 0)
(-0.000281784 0.000405909 0)
(-0.00028879 0.000360471 0)
(-0.000291726 0.000311298 0)
(-0.000290412 0.000258278 0)
(-0.000284633 0.000201288 0)
(-0.000274148 0.000140189 0)
(-0.000258671 7.48178e-05 0)
(-0.00023739 5.08244e-06 0)
(-0.000209974 -6.91149e-05 0)
(-0.000176368 -0.000148639 0)
(-0.000135365 -0.000233257 0)
(-8.68866e-05 -0.000321602 0)
(-3.0881e-05 -0.000412228 0)
(3.33361e-05 -0.000503676 0)
(0.000103581 -0.000590303 0)
(0.000179687 -0.00066866 0)
(0.000260296 -0.00073356 0)
(0.000343677 -0.00077953 0)
(0.000427717 -0.000801667 0)
(0.000509523 -0.000796427 0)
(0.000585746 -0.0007628 0)
(0.000652744 -0.000702575 0)
(0.000707056 -0.000620385 0)
(0.000745842 -0.00052299 0)
(0.000767278 -0.000417945 0)
(0.000770731 -0.000312401 0)
(0.000756686 -0.00021212 0)
(0.000726456 -0.000121286 0)
(-2.37823e-06 0.000288352 0)
(-1.27275e-05 0.000530675 0)
(-3.06554e-05 0.000626519 0)
(-5.17691e-05 0.000657932 0)
(-7.38437e-05 0.000659983 0)
(-9.56606e-05 0.000647603 0)
(-0.000116295 0.000627103 0)
(-0.00013508 0.000601132 0)
(-0.000151535 0.000570798 0)
(-0.000165294 0.00053655 0)
(-0.000176062 0.000498552 0)
(-0.000183599 0.000456836 0)
(-0.000187687 0.000411372 0)
(-0.00018811 0.000362082 0)
(-0.00018466 0.000308871 0)
(-0.000177119 0.000251607 0)
(-0.000165215 0.000190109 0)
(-0.00014865 0.000124137 0)
(-0.00012695 5.33712e-05 0)
(-9.85102e-05 -2.20855e-05 0)
(-6.4538e-05 -0.000102729 0)
(-2.36112e-05 -0.000189306 0)
(2.52096e-05 -0.000282153 0)
(8.10246e-05 -0.000378183 0)
(0.000144143 -0.000476199 0)
(0.000214187 -0.000573537 0)
(0.000290397 -0.000666223 0)
(0.00037218 -0.000749697 0)
(0.000458221 -0.000818275 0)
(0.000546761 -0.000865903 0)
(0.000635444 -0.000887028 0)
(0.000721179 -0.000877546 0)
(0.000800293 -0.000835981 0)
(0.000868811 -0.000764077 0)
(0.000922927 -0.00066687 0)
(0.000959505 -0.000551966 0)
(0.000976516 -0.000428099 0)
(0.000973255 -0.00030365 0)
(0.000950173 -0.000185503 0)
(0.000908578 -7.88151e-05 0)
(-8.46577e-07 0.000293183 0)
(-6.09601e-06 0.000541844 0)
(-1.62343e-05 0.00064159 0)
(-2.88226e-05 0.000674934 0)
(-4.23201e-05 0.000677428 0)
(-5.56818e-05 0.000664419 0)
(-6.80717e-05 0.000642525 0)
(-7.88645e-05 0.000614603 0)
(-8.75922e-05 0.000581898 0)
(-9.38871e-05 0.00054495 0)
(-9.74481e-05 0.000503982 0)
(-9.80189e-05 0.000459065 0)
(-9.53622e-05 0.000410186 0)
(-8.92021e-05 0.000357256 0)
(-7.92772e-05 0.000300182 0)
(-6.52911e-05 0.000238777 0)
(-4.68708e-05 0.00017276 0)
(-2.36273e-05 0.000101671 0)
(5.30836e-06 2.46672e-05 0)
(4.15038e-05 -5.73392e-05 0)
(8.34006e-05 -0.000144882 0)
(0.00013254 -0.000238669 0)
(0.00018894 -0.000338021 0)
(0.000252437 -0.000441212 0)
(0.000323052 -0.000546252 0)
(0.000400292 -0.000650103 0)
(0.000483478 -0.000748651 0)
(0.000571776 -0.000836855 0)
(0.000663847 -0.000908623 0)
(0.000757826 -0.000957332 0)
(0.000851185 -0.000976713 0)
(0.000940644 -0.000962001 0)
(0.00102228 -0.000911221 0)
(0.00109181 -0.000826033 0)
(0.00114513 -0.000711894 0)
(0.00117883 -0.000577328 0)
(0.00119071 -0.000432352 0)
(0.00117997 -0.000286707 0)
(0.00114694 -0.000148528 0)
(0.00109335 -2.39382e-05 0)
(5.1615e-07 0.000294435 0)
(-6.22482e-08 0.000546353 0)
(-2.90816e-06 0.000648745 0)
(-7.41379e-06 0.000683607 0)
(-1.27278e-05 0.000686526 0)
(-1.80028e-05 0.000673045 0)
(-2.25038e-05 0.000649988 0)
(-2.56486e-05 0.000620375 0)
(-2.6976e-05 0.000585565 0)
(-2.61062e-05 0.000546175 0)
(-2.27114e-05 0.000502476 0)
(-1.64921e-05 0.000454562 0)
(-7.1555e-06 0.000402401 0)
(5.66076e-06 0.000345745 0)
(2.22488e-05 0.000284692 0)
(4.30566e-05 0.000218899 0)
(6.85818e-05 0.000147922 0)
(9.93596e-05 7.11662e-05 0)
(0.000137118 -1.17226e-05 0)
(0.0001807 -0.000100181 0)
(0.000231262 -0.000194723 0)
(0.000289343 -0.000295736 0)
(0.000354747 -0.000402302 0)
(0.000427243 -0.00051263 0)
(0.000506542 -0.000624396 0)
(0.00059205 -0.000734345 0)
(0.000682967 -0.000838197 0)
(0.00077827 -0.000930526 0)
(0.000876535 -0.00100479 0)
(0.000975808 -0.00105376 0)
(0.00107344 -0.00107043 0)
(0.00116602 -0.00104931 0)
(0.00124939 -0.000987895 0)
(0.00131905 -0.000887709 0)
(0.00137061 -0.00075465 0)
(0.00140042 -0.000598222 0)
(0.00140614 -0.000429827 0)
(0.00138686 -0.000260702 0)
(0.00134278 -0.000100299 0)
(0.0012778 4.54808e-05 0)
(1.70957e-06 0.000292581 0)
(5.27371e-06 0.000544808 0)
(8.99141e-06 0.000648515 0)
(1.18597e-05 0.000684435 0)
(1.40827e-05 0.000687732 0)
(1.62961e-05 0.000673912 0)
(1.91246e-05 0.000649894 0)
(2.3107e-05 0.000618804 0)
(2.87059e-05 0.000582085 0)
(3.63282e-05 0.000540411 0)
(4.63485e-05 0.000494084 0)
(5.91319e-05 0.000443203 0)
(7.50468e-05 0.000387737 0)
(9.44819e-05 0.000327538 0)
(0.000117886 0.000262435 0)
(0.000145844 0.00019203 0)
(0.000178969 0.000115721 0)
(0.000218113 3.27609e-05 0)
(0.000265138 -5.67155e-05 0)
(0.000318297 -0.000152184 0)
(0.000379151 -0.000254153 0)
(0.000447754 -0.000362596 0)
(0.000523732 -0.000476362 0)
(0.000606593 -0.000593534 0)
(0.000695711 -0.000711545 0)
(0.000790278 -0.000826953 0)
(0.000889326 -0.000935288 0)
(0.000991688 -0.00103082 0)
(0.00109586 -0.00110657 0)
(0.00119984 -0.00115471 0)
(0.00130092 -0.00116747 0)
(0.00139556 -0.00113859 0)
(0.00147949 -0.00106497 0)
(0.00154798 -0.000947991 0)
(0.00159642 -0.000793974 0)
(0.00162099 -0.000613465 0)
(0.00161918 -0.000419334 0)
(0.00158989 -0.000224444 0)
(0.00153332 -3.98104e-05 0)
(0.00145397 0.0001282 0)
(2.74514e-06 0.000287915 0)
(9.88761e-06 0.000537958 0)
(1.92864e-05 0.000641783 0)
(2.85983e-05 0.000678242 0)
(3.74791e-05 0.000681781 0)
(4.63626e-05 0.000667687 0)
(5.57605e-05 0.00064286 0)
(6.61689e-05 0.000610471 0)
(7.80591e-05 0.000572011 0)
(9.18803e-05 0.000528184 0)
(0.000108074 0.000479303 0)
(0.000127092 0.000425461 0)
(0.000149414 0.000366596 0)
(0.000175568 0.000302527 0)
(0.00020619 0.000232944 0)
(0.000242036 0.000157303 0)
(0.000283976 7.48174e-05 0)
(0.000333984 -1.51808e-05 0)
(0.000390987 -0.000111855 0)
(0.000455776 -0.000215 0)
(0.000528846 -0.000324821 0)
(0.000609802 -0.000440831 0)
(0.000697928 -0.000561604 0)
(0.000792348 -0.000685065 0)
(0.000892079 -0.000808493 0)
(0.000996064 -0.000928327 0)
(0.00110317 -0.00103995 0)
(0.00121215 -0.0011374 0)
(0.00132145 -0.00121331 0)
(0.00142908 -0.00125925 0)
(0.00153229 -0.00126667 0)
(0.00162752 -0.00122851 0)
(0.00171039 -0.00114101 0)
(0.001776 -0.00100536 0)
(0.00181959 -0.000828326 0)
(0.00183719 -0.000621546 0)
(0.00182621 -0.000399465 0)
(0.00178536 -0.000176531 0)
(0.00171704 3.61981e-05 0)
(0.00162055 0.000227135 0)
(3.60746e-06 0.000280873 0)
(1.37192e-05 0.000526603 0)
(2.78232e-05 0.00062952 0)
(4.24976e-05 0.000666046 0)
(5.69669e-05 0.000669668 0)
(7.1501e-05 0.000655312 0)
(8.65161e-05 0.000629764 0)
(0.00010248 0.000596176 0)
(0.00011989 0.000556038 0)
(0.000139267 0.000510058 0)
(0.000161155 0.000458529 0)
(0.000186142 0.000401511 0)
(0.000214882 0.000338888 0)
(0.000248123 0.000270389 0)
(0.000286744 0.000195538 0)
(0.000331756 0.000113582 0)
(0.000384617 2.36099e-05 0)
(0.000446849 -7.43972e-05 0)
(0.000516905 -0.000179204 0)
(0.000595809 -0.000290753 0)
(0.000683272 -0.000408721 0)
(0.000778391 -0.000532133 0)
(0.000879979 -0.000659311 0)
(0.00098673 -0.000788055 0)
(0.00109733 -0.000915594 0)
(0.0012105 -0.00103836 0)
(0.001325 -0.00115167 0)
(0.00143957 -0.0012494 0)
(0.00155269 -0.00132384 0)
(0.0016624 -0.00136596 0)
(0.001766 -0.00136643 0)
(0.00185991 -0.0013173 0)
(0.00193968 -0.00121414 0)
(0.00200031 -0.00105789 0)
(0.00203691 -0.00085577 0)
(0.00204541 -0.00062055 0)
(0.00202308 -0.000368342 0)
(0.00196849 -0.000115404 0)
(0.00188476 0.000126509 0)
(0.00177139 0.000342448 0)
(4.28134e-06 0.000271914 0)
(1.67057e-05 0.000511623 0)
(3.44596e-05 0.000612801 0)
(5.33019e-05 0.000648983 0)
(7.21481e-05 0.000652517 0)
(9.11581e-05 0.000637859 0)
(0.000110691 0.000611599 0)
(0.000131219 0.000576806 0)
(0.000153306 0.000534923 0)
(0.000177587 0.00048661 0)
(0.000204774 0.000432107 0)
(0.000235671 0.000371399 0)
(0.000271197 0.00030427 0)
(0.000312415 0.000230303 0)
(0.000360555 0.000148803 0)
(0.000417108 5.8787e-05 0)
(0.000484463 -4.05637e-05 0)
(0.000560851 -0.000147487 0)
(0.000646933 -0.000261437 0)
(0.000742443 -0.000381864 0)
(0.000846298 -0.000507825 0)
(0.000956967 -0.000637912 0)
(0.00107274 -0.00077028 0)
(0.0011919 -0.000902719 0)
(0.00131289 -0.00103254 0)
(0.0014343 -0.00115627 0)
(0.00155488 -0.00126928 0)
(0.00167342 -0.00136537 0)
(0.00178849 -0.00143646 0)
(0.00189825 -0.00147297 0)
(0.00200006 -0.0014647 0)
(0.00209035 -0.0014028 0)
(0.00216461 -0.00128209 0)
(0.00221779 -0.00110328 0)
(0.00224494 -0.00087403 0)
(0.00224196 -0.000608281 0)
(0.00220603 -0.000323807 0)
(0.00213594 -3.85487e-05 0)
(0.0020342 0.000233696 0)
(0.00190249 0.000475329 0)
(4.7573e-06 0.000261522 0)
(1.87993e-05 0.000493959 0)
(3.90808e-05 0.000592792 0)
(6.08086e-05 0.000628306 0)
(8.27154e-05 0.000631581 0)
(0.00010492 0.000616521 0)
(0.000127782 0.000589456 0)
(0.000151834 0.000553306 0)
(0.000177767 0.000509406 0)
(0.000206414 0.000458314 0)
(0.000238746 0.000400158 0)
(0.000275896 0.000334789 0)
(0.000319171 0.000261829 0)
(0.000370081 0.000180642 0)
(0.00043039 9.02636e-05 0)
(0.000502573 -1.04342e-05 0)
(0.000586322 -0.000120202 0)
(0.00068091 -0.000237473 0)
(0.000786057 -0.000361316 0)
(0.000900422 -0.00049052 0)
(0.0010221 -0.0006236 0)
(0.00114892 -0.000758884 0)
(0.00127871 -0.000894522 0)
(0.00140949 -0.00102846 0)
(0.00153955 -0.00115822 0)
(0.0016675 -0.00128057 0)
(0.00179217 -0.00139101 0)
(0.00191247 -0.00148327 0)
(0.00202717 -0.001549 0)
(0.00213452 -0.00157794 0)
(0.00223198 -0.00155905 0)
(0.00231599 -0.00148247 0)
(0.002382 -0.00134226 0)
(0.00242493 -0.00113888 0)
(0.00243981 -0.000880499 0)
(0.0024226 -0.000582311 0)
(0.0023705 -0.000263678 0)
(0.0022841 5.76238e-05 0)
(0.00216144 0.000360452 0)
(0.00200946 0.000627546 0)
(5.03043e-06 0.000250198 0)
(1.99691e-05 0.0004746 0)
(4.16074e-05 0.000570722 0)
(6.48772e-05 0.00060535 0)
(8.8465e-05 0.0006082 0)
(0.000112531 0.000592569 0)
(0.000137516 0.000564465 0)
(0.000164098 0.000526593 0)
(0.000193195 0.000480107 0)
(0.000225951 0.000425387 0)
(0.000263738 0.000362372 0)
(0.000308169 0.000290705 0)
(0.000361105 0.000209772 0)
(0.000424681 0.000118659 0)
(0.000501557 1.61592e-05 0)
(0.000593011 -9.74016e-05 0)
(0.000697146 -0.000219156 0)
(0.000813369 -0.000347679 0)
(0.000939976 -0.000481306 0)
(0.00107456 -0.000618216 0)
(0.00121443 -0.000756605 0)
(0.0013569 -0.000894773 0)
(0.0014995 -0.00103107 0)
(0.00164013 -0.00116376 0)
(0.00177713 -0.00129073 0)
(0.0019092 -0.00140907 0)
(0.00203537 -0.00151446 0)
(0.00215476 -0.00160061 0)
(0.00226632 -0.00165883 0)
(0.00236845 -0.0016782 0)
(0.0024587 -0.00164671 0)
(0.0025335 -0.00155346 0)
(0.00258825 -0.00139172 0)
(0.00261782 -0.00116171 0)
(0.00261727 -0.000872176 0)
(0.00258261 -0.000539653 0)
(0.00251108 -0.000185218 0)
(0.00240349 0.000172526 0)
(0.00225906 0.000507496 0)
(0.00208568 0.000800034 0)
(5.09905e-06 0.000238459 0)
(2.02004e-05 0.000454566 0)
(4.20003e-05 0.000547867 0)
(6.54438e-05 0.000581492 0)
(8.9322e-05 0.000583744 0)
(0.000113939 0.00056727 0)
(0.000139927 0.000537693 0)
(0.000168233 0.000497426 0)
(0.000200145 0.000447345 0)
(0.000237287 0.000387558 0)
(0.000281625 0.000317715 0)
(0.000335462 0.000237169 0)
(0.000401427 0.000145016 0)
(0.000482565 4.00476e-05 0)
(0.000581554 -7.84135e-05 0)
(0.000695812 -0.000206107 0)
(0.000824243 -0.000340972 0)
(0.000964611 -0.000480651 0)
(0.00111388 -0.000622786 0)
(0.00126872 -0.000765223 0)
(0.00142583 -0.00090616 0)
(0.00158223 -0.00104414 0)
(0.00173537 -0.00117793 0)
(0.00188323 -0.00130624 0)
(0.0020243 -0.00142744 0)
(0.00215751 -0.00153897 0)
(0.00228214 -0.00163676 0)
(0.00239755 -0.00171446 0)
(0.0025029 -0.00176302 0)
(0.00259676 -0.00177078 0)
(0.00267671 -0.00172466 0)
(0.00273914 -0.00161268 0)
(0.0027794 -0.00142726 0)
(0.00279229 -0.00116851 0)
(0.00277298 -0.000845834 0)
(0.00271765 -0.00047712 0)
(0.00262354 -8.49991e-05 0)
(0.00249088 0.000310147 0)
(0.00232192 0.000677113 0)
(0.0021253 0.000993962 0)
(4.9641e-06 0.00022682 0)
(1.94966e-05 0.000434888 0)
(4.0271e-05 0.00052551 0)
(6.25463e-05 0.000558103 0)
(8.53886e-05 0.000559543 0)
(0.000109377 0.000541786 0)
(0.000135481 0.000510001 0)
(0.000165092 0.000466202 0)
(0.000200071 0.000410875 0)
(0.000242762 0.000343722 0)
(0.000295982 0.000264 0)
(0.000363009 0.000170703 0)
(0.000447494 6.25938e-05 0)
(0.000553297 -6.18713e-05 0)
(0.000677739 -0.000197185 0)
(0.000819076 -0.000340433 0)
(0.000974381 -0.000488282 0)
(0.00113985 -0.000637578 0)
(0.00131136 -0.000785629 0)
(0.00148494 -0.000930351 0)
(0.001657 -0.00107028 0)
(0.00182453 -0.00120446 0)
(0.00198508 -0.0013322 0)
(0.00213686 -0.0014528 0)
(0.00227862 -0.00156513 0)
(0.00240959 -0.00166704 0)
(0.00252932 -0.00175467 0)
(0.00263745 -0.00182162 0)
(0.00273335 -0.0018584 0)
(0.00281571 -0.00185249 0)
(0.0028821 -0.00178968 0)
(0.00292885 -0.00165681 0)
(0.00295117 -0.0014455 0)
(0.00294384 -0.00115581 0)
(0.00290211 -0.000797975 0)
(0.00282244 -0.000391175 0)
(0.00270303 4.31226e-05 0)
(0.0025412 0.000474835 0)
(0.00234451 0.000872234 0)
(0.00212242 0.00121094 0)
(4.62985e-06 0.000215792 0)
(1.78853e-05 0.000416577 0)
(3.65028e-05 0.000504889 0)
(5.63679e-05 0.000536471 0)
(7.70174e-05 0.000536775 0)
(9.94728e-05 0.000517024 0)
(0.000125243 0.000481834 0)
(0.000156401 0.00043269 0)
(0.000195664 0.000369524 0)
(0.00024641 0.000291483 0)
(0.000312667 0.000197321 0)
(0.000398981 8.558e-05 0)
(0.000510124 -4.56502e-05 0)
(0.000644268 -0.00019047 0)
(0.000798672 -0.000344455 0)
(0.000969618 -0.000503038 0)
(0.00115239 -0.000661983 0)
(0.00134197 -0.000817828 0)
(0.00153359 -0.000968045 0)
(0.00172301 -0.00111101 0)
(0.00190667 -0.00124587 0)
(0.0020817 -0.00137232 0)
(0.00224596 -0.00149035 0)
(0.00239793 -0.00159985 0)
(0.00253672 -0.00170025 0)
(0.00266186 -0.00178979 0)
(0.00277321 -0.00186479 0)
(0.00287066 -0.00191875 0)
(0.00295377 -0.00194166 0)