/*--------------------------------*- C++ -*----------------------------------*\
  =========                 |
  \\      /  F ield         | OpenFOAM: The Open Source CFD Toolbox
   \\    /   O peration     | Website:  https://openfoam.org
    \\  /    A nd           | Version:  6
     \\/     M anipulation  |
\*---------------------------------------------------------------------------*/
FoamFile
{
    version     2.0;
    format      ascii;
    class       volScalarField;
    location    "60";
    object      neg;
}
// * * * * * * * * * * * * * * * * * * * * * * * * * * * * * * * * * * * * * //

dimensions      [0 -3 1 0 0 1 0];

internalField   nonuniform List<scalar> 
8800
(
8.77366e-05
8.77074e-05
8.77398e-05
8.766e-05
8.76362e-05
8.76096e-05
8.75797e-05
8.75465e-05
8.751e-05
8.74704e-05
8.74278e-05
8.73826e-05
8.73349e-05
8.7285e-05
8.72332e-05
8.71795e-05
8.71244e-05
8.7068e-05
8.70106e-05
8.69523e-05
8.68935e-05
8.68343e-05
8.67749e-05
8.67157e-05
8.66567e-05
8.65983e-05
8.65406e-05
8.64838e-05
8.64282e-05
8.6374e-05
8.63215e-05
8.62733e-05
8.6257e-05
8.62562e-05
8.62603e-05
8.62685e-05
8.62799e-05
8.6294e-05
8.63102e-05
8.6328e-05
0.000169218
0.000170495
0.000170526
0.000170324
0.000170171
0.000170064
0.00016998
0.000169904
0.00016983
0.000169753
0.000169672
0.000169587
0.000169499
0.000169407
0.000169312
0.000169216
0.000169118
0.00016902
0.000168923
0.000168826
0.000168732
0.00016864
0.000168551
0.000168466
0.000168384
0.000168307
0.000168234
0.000168165
0.000168101
0.000168045
0.000168007
0.000168047
0.000168147
0.000168262
0.000168388
0.000168522
0.000168662
0.000168804
0.000168948
0.00016909
0.000245355
0.000246565
0.00024661
0.00024637
0.000246174
0.000246026
0.000245908
0.000245802
0.000245699
0.000245594
0.000245487
0.000245376
0.000245262
0.000245146
0.000245031
0.000244917
0.000244808
0.000244705
0.000244609
0.000244524
0.000244449
0.000244386
0.000244336
0.000244299
0.000244275
0.000244264
0.000244266
0.000244282
0.000244317
0.000244393
0.000244583
0.000244904
0.000245244
0.000245608
0.000245986
0.000246373
0.000246763
0.00024715
0.000247531
0.000247903
0.000315366
0.000315463
0.00031526
0.000315009
0.000314831
0.000314696
0.00031458
0.000314471
0.000314363
0.000314254
0.000314143
0.000314031
0.000313921
0.000313817
0.000313721
0.000313637
0.000313569
0.00031352
0.000313494
0.000313492
0.000313518
0.000313572
0.000313656
0.000313768
0.000313908
0.000314076
0.000314273
0.000314504
0.000314793
0.000315206
0.000315877
0.000316549
0.00031725
0.000317975
0.000318711
0.000319449
0.00032018
0.000320899
0.000321599
0.000322274
0.000378451
0.00037702
0.000376368
0.000376042
0.000375884
0.000375784
0.000375698
0.000375616
0.000375532
0.000375449
0.000375369
0.000375295
0.000375234
0.000375189
0.000375167
0.000375174
0.000375215
0.000375295
0.000375418
0.000375588
0.000375806
0.000376075
0.000376393
0.00037676
0.000377176
0.000377639
0.000378157
0.000378751
0.000379485
0.000380524
0.000381616
0.000382727
0.000383865
0.000385018
0.000386172
0.000387314
0.000388435
0.000389526
0.00039058
0.000391591
0.000434458
0.000431301
0.000430085
0.000429628
0.000429473
0.000429414
0.000429379
0.00042935
0.000429323
0.000429302
0.000429293
0.000429303
0.000429339
0.00042941
0.000429523
0.000429686
0.000429906
0.000430189
0.000430541
0.000430964
0.00043146
0.000432029
0.000432672
0.000433386
0.000434171
0.000435031
0.000435984
0.00043708
0.00043844
0.000440048
0.000441614
0.000443199
0.000444801
0.000446401
0.000447984
0.000449535
0.000451044
0.000452503
0.000453903
0.000455241
0.000483609
0.000478645
0.000476814
0.000476191
0.000476026
0.000476012
0.000476044
0.000476092
0.000476151
0.000476228
0.00047633
0.000476468
0.00047665
0.000476889
0.000477192
0.00047757
0.00047803
0.000478579
0.000479222
0.000479961
0.000480798
0.000481733
0.000482763
0.000483888
0.000485108
0.000486436
0.000487903
0.000489588
0.00049165
0.000493705
0.000495743
0.000497791
0.000499836
0.000501858
0.000503838
0.000505763
0.00050762
0.000509404
0.000511107
0.000512727
0.000526325
0.000519597
0.000517142
0.000516338
0.000516157
0.000516192
0.000516302
0.000516446
0.000516617
0.000516821
0.000517068
0.00051737
0.000517739
0.000518185
0.000518721
0.000519356
0.000520098
0.000520954
0.000521928
0.000523022
0.000524236
0.000525569
0.000527018
0.000528584
0.00053027
0.000532098
0.000534119
0.000536441
0.000539017
0.0005415
0.000543971
0.000546434
0.000548869
0.000551256
0.000553573
0.000555806
0.000557946
0.000559987
0.000561926
0.000563763
0.000563145
0.000554805
0.000551754
0.000550766
0.000550564
0.00055065
0.000550847
0.000551101
0.000551402
0.000551754
0.00055217
0.000552661
0.00055324
0.000553921
0.000554713
0.000555628
0.000556672
0.000557852
0.00055917
0.000560629
0.000562227
0.000563961
0.000565829
0.000567832
0.000569979
0.000572299
0.000574857
0.000577779
0.000580695
0.000583552
0.000586389
0.000589198
0.000591952
0.000594629
0.000597207
0.000599672
0.000602017
0.000604238
0.000606336
0.000608314
0.000594668
0.000584946
0.00058135
0.000580184
0.000579959
0.000580096
0.000580384
0.000580755
0.000581195
0.000581707
0.000582302
0.000582994
0.000583795
0.000584717
0.000585773
0.000586969
0.000588315
0.000589814
0.000591468
0.000593277
0.00059524
0.000597351
0.00059961
0.000602018
0.000604588
0.00060735
0.000610367
0.000613726
0.000616936
0.000620097
0.000623224
0.0006263
0.000629295
0.000632184
0.000634946
0.000637566
0.000640039
0.000642364
0.000644548
0.000646596
0.000621498
0.000610676
0.000606604
0.000605268
0.000605019
0.000605203
0.00060558
0.000606069
0.000606649
0.000607322
0.000608098
0.000608989
0.000610009
0.000611167
0.000612475
0.000613941
0.000615569
0.000617364
0.000619326
0.000621453
0.000623742
0.000626188
0.00062879
0.00063155
0.000634484
0.000637633
0.000641094
0.000644651
0.000648089
0.000651479
0.00065482
0.000658087
0.00066125
0.00066428
0.000667156
0.000669864
0.0006724
0.000674768
0.000676976
0.000679036
0.000644218
0.000632598
0.000628126
0.000626635
0.000626357
0.000626583
0.000627043
0.000627644
0.000628358
0.000629186
0.000630134
0.000631213
0.000632436
0.000633813
0.000635352
0.00063706
0.000638941
0.000640997
0.000643225
0.000645625
0.000648191
0.000650918
0.000653803
0.000656851
0.000660078
0.000663528
0.000667289
0.000670977
0.000674577
0.000678125
0.00068161
0.000685002
0.00068827
0.000691383
0.00069432
0.000697066
0.000699619
0.000701984
0.000704174
0.000706205
0.000663362
0.000651247
0.00064646
0.000644828
0.000644517
0.000644776
0.000645309
0.000646012
0.000646849
0.000647817
0.000648921
0.000650171
0.000651576
0.000653145
0.000654886
0.000656802
0.000658897
0.000661171
0.00066362
0.000666241
0.000669029
0.000671977
0.000675083
0.00067835
0.000681794
0.000685453
0.000689392
0.000693169
0.000696871
0.000700515
0.000704086
0.00070755
0.000710874
0.000714029
0.000716991
0.000719744
0.000722287
0.000724626
0.000726777
0.000728757
0.000679412
0.00066709
0.000662071
0.000660315
0.000659968
0.000660249
0.000660844
0.000661633
0.000662578
0.000663669
0.000664909
0.000666305
0.000667866
0.000669598
0.000671506
0.000673594
0.000675862
0.000678309
0.000680931
0.000683723
0.000686678
0.00068979
0.000693055
0.000696476
0.000700072
0.000703911
0.000707882
0.000711705
0.000715457
0.00071915
0.000722761
0.000726257
0.000729606
0.000732779
0.000735749
0.000738497
0.00074102
0.000743328
0.000745447
0.000747368
0.000692788
0.000680526
0.00067536
0.000673498
0.000673111
0.000673402
0.000674044
0.000674905
0.00067594
0.000677133
0.000678487
0.000680004
0.000681692
0.000683555
0.000685597
0.000687819
0.00069022
0.000692798
0.000695547
0.000698461
0.000701533
0.000704756
0.000708125
0.000711643
0.000715329
0.000719286
0.000723227
0.000727057
0.000730821
0.000734527
0.000738149
0.000741653
0.000745007
0.000748199
0.000751184
0.000753921
0.000756426
0.000758708
0.000760787
0.000762665
0.000703847
0.000691902
0.000686667
0.000684714
0.000684283
0.000684574
0.000685248
0.000686164
0.000687269
0.000688545
0.000689989
0.000691603
0.00069339
0.000695354
0.000697496
0.000699817
0.000702314
0.000704983
0.000707818
0.000710812
0.000713958
0.000717248
0.000720675
0.000724242
0.000727964
0.00073196
0.000735862
0.000739674
0.000743424
0.000747144
0.000750769
0.000754264
0.000757611
0.000760794
0.000763776
0.00076652
0.00076903
0.000771312
0.000773381
0.000775244
0.000712916
0.000701482
0.000696276
0.000694254
0.000693772
0.000694052
0.000694743
0.000695697
0.000696855
0.000698192
0.000699704
0.000701389
0.00070325
0.000705286
0.000707499
0.000709888
0.000712447
0.000715174
0.000718061
0.000721101
0.000724284
0.000727604
0.000731054
0.000734631
0.000738412
0.000742373
0.000746229
0.000750006
0.000753726
0.00075741
0.00076101
0.000764491
0.000767833
0.000771018
0.000774014
0.000776788
0.000779334
0.00078165
0.000783747
0.00078563
0.000720278
0.000709508
0.000704413
0.000702353
0.000701822
0.000702077
0.000702769
0.000703745
0.000704936
0.000706317
0.000707878
0.000709613
0.000711522
0.000713607
0.000715865
0.000718298
0.000720898
0.000723658
0.000726572
0.000729632
0.00073283
0.000736158
0.000739607
0.000743177
0.000746975
0.000750839
0.000754639
0.000758374
0.000762058
0.000765702
0.000769274
0.000772745
0.000776091
0.000779295
0.000782328
0.00078516
0.000787776
0.000790165
0.000792331
0.000794274
0.000726177
0.000716181
0.00071127
0.000709204
0.000708632
0.000708856
0.000709538
0.000710519
0.000711729
0.000713136
0.000714726
0.000716492
0.000718433
0.000720546
0.00072283
0.000725283
0.000727899
0.000730669
0.000733589
0.000736648
0.00073984
0.000743155
0.000746587
0.000750131
0.000753893
0.000757672
0.000761413
0.000765105
0.000768753
0.000772363
0.000775915
0.000779385
0.000782751
0.000785995
0.000789091
0.000792011
0.000794731
0.000797234
0.000799511
0.000801559
0.000730823
0.000721672
0.000717008
0.000714969
0.000714364
0.000714555
0.000715218
0.000716194
0.000717408
0.000718826
0.00072043
0.000722211
0.000724165
0.00072629
0.000728582
0.000731038
0.000733652
0.000736417
0.000739324
0.000742368
0.000745539
0.000748829
0.000752231
0.000755771
0.000759444
0.000763144
0.000766829
0.000770482
0.000774101
0.000777689
0.000781234
0.000784718
0.000788122
0.00079143
0.000794618
0.000797656
0.000800518
0.000803175
0.000805608
0.000807802
0.000734396
0.000726129
0.000721762
0.000719779
0.000719156
0.000719315
0.000719952
0.000720913
0.00072212
0.000723536
0.000725141
0.000726923
0.000728877
0.000731
0.000733285
0.000735731
0.000738331
0.000741077
0.000743963
0.00074698
0.000750122
0.00075338
0.000756747
0.000760266
0.000763857
0.000767487
0.000771122
0.000774743
0.000778346
0.000781928
0.000785484
0.000789001
0.000792467
0.000795865
0.000799175
0.000802366
0.000805405
0.000808256
0.000810887
0.000813272
0.000737048
0.000729675
0.000725642
0.000723747
0.00072312
0.00072325
0.000723859
0.000724798
0.000725989
0.000727393
0.000728987
0.00073076
0.000732703
0.000734812
0.000737082
0.000739508
0.000742084
0.000744804
0.000747661
0.000750647
0.000753755
0.000756979
0.000760321
0.000763789
0.000767318
0.000770892
0.000774489
0.000778091
0.000781691
0.000785286
0.000788874
0.000792448
0.000796001
0.00079952
0.000802984
0.000806363
0.000809617
0.000812703
0.000815575
0.000818194
0.00073891
0.000732418
0.000728747
0.000726965
0.00072635
0.000726459
0.000727039
0.000727951
0.00072912
0.000730503
0.00073208
0.000733834
0.000735758
0.000737845
0.000740091
0.000742491
0.000745038
0.000747727
0.000750552
0.000753504
0.00075658
0.00075977
0.000763096
0.000766507
0.000769986
0.00077352
0.000777093
0.00078069
0.000784303
0.000787931
0.000791575
0.000795233
0.000798903
0.000802574
0.00080623
0.000809836
0.000813347
0.00081671
0.000819867
0.000822764
0.000740093
0.000734451
0.000731157
0.000729511
0.000728924
0.000729019
0.000729573
0.000730457
0.000731599
0.000732957
0.000734509
0.000736239
0.000738137
0.000740198
0.000742416
0.000744785
0.0007473
0.000749957
0.000752748
0.000755669
0.000758713
0.000761879
0.000765171
0.000768543
0.000771989
0.000775501
0.000779066
0.000782673
0.000786319
0.000790002
0.000793726
0.000797497
0.000801316
0.000805179
0.000809066
0.000812943
0.000816758
0.000820445
0.000823933
0.000827154
0.000740694
0.000735853
0.000732942
0.00073145
0.000730908
0.000731
0.000731532
0.000732388
0.000733501
0.000734831
0.000736354
0.000738055
0.000739924
0.000741955
0.000744141
0.000746478
0.000748961
0.000751584
0.000754344
0.000757236
0.000760253
0.000763405
0.000766659
0.000770005
0.000773433
0.000776939
0.000780512
0.000784148
0.000787844
0.000791604
0.000795436
0.000799351
0.000803358
0.000807454
0.000811621
0.00081582
0.000819991
0.000824056
0.000827928
0.000831524
0.00074079
0.000736695
0.000734164
0.000732839
0.000732355
0.000732454
0.00073297
0.000733802
0.000734886
0.000736186
0.000737679
0.000739349
0.000741187
0.000743186
0.00074534
0.000747644
0.000750095
0.000752688
0.00075542
0.000758286
0.000761285
0.000764412
0.000767644
0.000770975
0.000774401
0.000777915
0.000781515
0.000785196
0.000788962
0.000792822
0.00079679
0.000800885
0.00080512
0.000809498
0.000814001
0.000818584
0.000823174
0.00082768
0.000831997
0.000836024
0.00074045
0.000737037
0.000734874
0.000733726
0.000733314
0.00073343
0.000733938
0.000734748
0.000735806
0.000737077
0.000738539
0.000740178
0.000741985
0.000743951
0.000746073
0.000748347
0.000750767
0.000753333
0.00075604
0.000758886
0.000761869
0.000764973
0.000768191
0.00077152
0.000774956
0.000778494
0.000782134
0.000785878
0.000789734
0.000793717
0.000797851
0.000802163
0.000806674
0.000811392
0.000816297
0.000821335
0.000826421
0.000831445
0.00083628
0.000840807
0.000739732
0.000736932
0.000735121
0.000734154
0.000733823
0.000733967
0.000734474
0.000735268
0.000736303
0.000737547
0.00073898
0.000740589
0.000742364
0.0007443
0.000746392
0.000748636
0.00075103
0.000753571
0.000756258
0.000759087
0.00076205
0.00076514
0.000768355
0.000771691
0.000775147
0.000778721
0.000782415
0.000786237
0.000790201
0.000794332
0.000798663
0.000803234
0.000808075
0.000813199
0.000818584
0.000824166
0.000829841
0.000835476
0.00084092
0.000846028
0.000738683
0.000736428
0.000734946
0.000734158
0.000733917
0.000734097
0.000734611
0.000735397
0.000736413
0.000737633
0.00073904
0.000740621
0.000742367
0.000744275
0.000746339
0.000748557
0.000750927
0.000753448
0.000756117
0.000758926
0.000761873
0.000764956
0.000768173
0.000771524
0.000775008
0.000778626
0.000782385
0.000786298
0.000790388
0.00079469
0.000799253
0.000804128
0.00080936
0.000814967
0.000820926
0.000827158
0.000833537
0.0008399
0.000846065
0.000851855
0.000737343
0.000735565
0.000734385
0.000733773
0.000733625
0.000733851
0.000734379
0.000735162
0.000736165
0.000737366
0.00073875
0.000740306
0.000742027
0.000743909
0.000745948
0.000748143
0.000750493
0.000752997
0.000755642
0.000758432
0.000761368
0.000764448
0.000767672
0.000771042
0.000774558
0.000778227
0.000782058
0.000786073
0.000790305
0.000794802
0.00079963
0.000804859
0.000810551
0.000816733
0.000823376
0.000830388
0.000837611
0.000844847
0.000851875
0.000858667
0.000735745
0.000734378
0.000733473
0.000733028
0.000732977
0.000733252
0.000733802
0.000734589
0.000735585
0.000736772
0.000738138
0.000739673
0.000741372
0.000743232
0.00074525
0.000747425
0.000749758
0.000752232
0.000754855
0.00075763
0.000760556
0.000763634
0.000766867
0.000770256
0.000773806
0.000777527
0.000781436
0.000785561
0.000789947
0.000794661
0.00079979
0.000805428
0.000811657
0.000818517
0.000825978
0.000833924
0.000842165
0.000850453
0.000858607
0.000866558
0.000733919
0.000732901
0.000732239
0.000731951
0.000731995
0.000732325
0.000732903
0.000733699
0.000734694
0.000735873
0.000737225
0.000738744
0.000740425
0.000742266
0.000744266
0.000746424
0.000748724
0.000751172
0.000753774
0.000756532
0.000759447
0.000762522
0.00076576
0.000769166
0.000772749
0.000776522
0.000780508
0.000784747
0.000789298
0.00079425
0.000799715
0.000805818
0.000812671
0.000820329
0.000828761
0.000837829
0.000847297
0.000856859
0.000866584
0.00087582
0.000731886
0.000731161
0.000730713
0.000730568
0.000730705
0.000731091
0.000731701
0.000732513
0.000733512
0.000734687
0.000736031
0.000737538
0.000739205
0.000741031
0.000743015
0.000745137
0.000747403
0.000749826
0.000752405
0.000755142
0.000758042
0.000761108
0.000764346
0.000767764
0.000771374
0.000775194
0.000779256
0.00078361
0.000788335
0.000793541
0.000799376
0.000806003
0.00081357
0.000822159
0.00083174
0.000842151
0.000853103
0.000864512
0.000875939
0.000886773
0.000729667
0.000729183
0.000728918
0.000728904
0.000729128
0.000729571
0.000730216
0.000731049
0.000732057
0.000733233
0.000734573
0.000736072
0.000737727
0.00073954
0.00074148
0.000743563
0.000745801
0.000748194
0.000750744
0.000753455
0.000756332
0.000759382
0.000762612
0.000766034
0.000769663
0.000773524
0.000777656
0.000782123
0.000787023
0.000792497
0.000798731
0.000805938
0.000814314
0.000823978
0.00083491
0.00084692
0.000859733
0.000873371
0.000886938
0.000899807
0.000727278
0.00072699
0.00072688
0.00072698
0.000727286
0.000727785
0.000728467
0.000729323
0.000730344
0.000731526
0.000732864
0.000734357
0.000736002
0.000737757
0.000739659
0.00074171
0.000743912
0.000746267
0.00074878
0.000751456
0.000754302
0.000757326
0.000760539
0.000763955
0.000767594
0.000771486
0.000775681
0.000780255
0.000785328
0.000791077
0.000797733
0.000805569
0.000814846
0.000825734
0.000838236
0.000852135
0.000867502
0.000883653
0.000899905
0.000916082
0.000724733
0.000724601
0.000724621
0.000724821
0.0007252
0.000725753
0.000726472
0.000727353
0.000728389
0.000729578
0.000730917
0.000732387
0.000733966
0.00073569
0.000737556
0.000739566
0.000741722
0.00074403
0.000746496
0.000749127
0.000751931
0.00075492
0.000758106
0.000761506
0.000765145
0.000769059
0.000773304
0.000777975
0.000783214
0.000789235
0.000796325
0.000804828
0.000815085
0.000827342
0.000841641
0.000857928
0.000876113
0.000895478
0.000916513
0.000935426
0.000722043
0.000722034
0.000722161
0.000722446
0.000722891
0.000723493
0.000724248
0.000725153
0.000726204
0.000727399
0.000728697
0.000730109
0.000731656
0.000733339
0.000735157
0.000737113
0.000739213
0.000741464
0.000743872
0.000746447
0.000749201
0.000752145
0.000755294
0.00075867
0.000762298
0.000766221
0.000770505
0.000775258
0.000780649
0.00078693
0.000794449
0.000803634
0.000814928
0.000828677
0.00084499
0.000864108
0.000885495
0.000910649
0.000935644
0.000958242
0.000719219
0.000719306
0.00071952
0.000719877
0.000720379
0.000721025
0.000721812
0.000722738
0.000723796
0.000724928
0.000726181
0.000727558
0.000729059
0.000730686
0.000732442
0.000734332
0.000736364
0.000738546
0.000740887
0.000743398
0.000746093
0.000748984
0.00075209
0.000755432
0.00075904
0.000762961
0.00076727
0.000772087
0.000777607
0.000784123
0.000792048
0.000801902
0.000814249
0.000829573
0.0008482
0.000870253
0.000896827
0.00092737
0.000957365
0.00098508
0.00071627
0.000716432
0.000716715
0.000717131
0.000717681
0.000718364
0.000719177
0.000720092
0.000721079
0.000722182
0.000723395
0.000724719
0.000726156
0.000727711
0.000729391
0.000731202
0.000733154
0.000735258
0.000737524
0.000739965
0.000742595
0.000745429
0.000748485
0.000751787
0.000755367
0.000759275
0.000763591
0.000768452
0.000774072
0.000780786
0.00078907
0.000799541
0.0008129
0.000829796
0.000850725
0.00087578
0.000908847
0.000944718
0.0009813
0.00101661
0.000713205
0.000713424
0.000713763
0.000714226
0.000714814
0.000715525
0.00071631
0.000717167
0.000718122
0.000719176
0.000720326
0.000721575
0.000722929
0.000724396
0.000725984
0.000727704
0.000729567
0.000731585
0.000733771
0.000736139
0.000738702
0.000741476
0.00074448
0.000747738
0.000751283
0.000755168
0.000759477
0.000764357
0.000770044
0.000776906
0.000785478
0.000796473
0.000810733
0.000829047
0.000852028
0.000880552
0.000918856
0.000960794
0.00100566
0.00105275
8.63468e-05
8.63662e-05
8.63855e-05
8.64041e-05
8.64214e-05
8.64364e-05
8.6448e-05
8.6454e-05
8.64483e-05
8.64069e-05
8.64069e-05
8.64483e-05
8.6454e-05
8.6448e-05
8.64364e-05
8.64214e-05
8.64041e-05
8.63855e-05
8.63662e-05
8.63468e-05
0.000169229
0.000169363
0.00016949
0.000169608
0.000169715
0.000169808
0.000169885
0.000169942
0.000169971
0.000169955
0.000169955
0.000169971
0.000169942
0.000169885
0.000169808
0.000169715
0.000169608
0.00016949
0.000169363
0.000169229
0.000248261
0.000248602
0.000248921
0.000249216
0.000249481
0.000249712
0.000249904
0.000250054
0.000250151
0.000250186
0.000250186
0.000250151
0.000250054
0.000249904
0.000249712
0.000249481
0.000249216
0.000248921
0.000248602
0.000248261
0.00032292
0.000323531
0.000324101
0.000324625
0.000325094
0.000325504
0.000325847
0.000326116
0.000326302
0.000326392
0.000326392
0.000326302
0.000326116
0.000325847
0.000325504
0.000325094
0.000324625
0.000324101
0.000323531
0.00032292
0.000392554
0.000393461
0.000394305
0.000395079
0.000395773
0.000396379
0.000396887
0.000397288
0.000397572
0.000397722
0.000397722
0.000397572
0.000397288
0.000396887
0.000396379
0.000395773
0.000395079
0.000394305
0.000393461
0.000392554
0.000456509
0.000457702
0.000458811
0.000459826
0.000460738
0.000461534
0.000462203
0.000462734
0.000463113
0.000463322
0.000463322
0.000463113
0.000462734
0.000462203
0.000461534
0.000460738
0.000459826
0.000458811
0.000457702
0.000456509
0.000514258
0.000515696
0.000517033
0.000518257
0.000519358
0.000520321
0.000521132
0.000521776
0.000522239
0.000522499
0.000522499
0.000522239
0.000521776
0.000521132
0.000520321
0.000519358
0.000518257
0.000517033
0.000515696
0.000514258
0.000565494
0.000567118
0.000568628
0.000570013
0.000571261
0.000572354
0.000573277
0.000574012
0.000574541
0.000574839
0.000574839
0.000574541
0.000574012
0.000573277
0.000572354
0.000571261
0.000570013
0.000568628
0.000567118
0.000565494
0.000610174
0.000611917
0.000613539
0.00061503
0.000616376
0.00061756
0.000618561
0.000619359
0.000619934
0.000620259
0.000620259
0.000619934
0.000619359
0.000618561
0.00061756
0.000616376
0.00061503
0.000613539
0.000611917
0.000610174
0.000648518
0.000650316
0.000651991
0.000653534
0.000654933
0.000656167
0.000657214
0.00065805
0.000658653
0.000658991
0.000658991
0.000658653
0.00065805
0.000657214
0.000656167
0.000654933
0.000653534
0.000651991
0.000650316
0.000648518
0.000680962
0.000682762
0.00068444
0.000685991
0.000687401
0.000688651
0.000689716
0.00069057
0.000691184
0.000691528
0.000691528
0.000691184
0.00069057
0.000689716
0.000688651
0.000687401
0.000685991
0.00068444
0.000682762
0.000680962
0.000708095
0.000709859
0.000711503
0.000713028
0.00071442
0.00071566
0.000716722
0.000717575
0.00071819
0.000718533
0.000718533
0.00071819
0.000717575
0.000716722
0.00071566
0.00071442
0.000713028
0.000711503
0.000709859
0.000708095
0.000730588
0.000732293
0.000733882
0.000735359
0.000736713
0.000737925
0.000738969
0.000739812
0.00074042
0.000740758
0.000740758
0.00074042
0.000739812
0.000738969
0.000737925
0.000736713
0.000735359
0.000733882
0.000732293
0.000730588
0.000749134
0.00075077
0.000752294
0.000753711
0.000755016
0.000756191
0.000757208
0.000758035
0.000758635
0.000758969
0.000758969
0.000758635
0.000758035
0.000757208
0.000756191
0.000755016
0.000753711
0.000752294
0.00075077
0.000749134
0.000764379
0.000765957
0.000767421
0.000768781
0.000770036
0.000771171
0.000772161
0.00077297
0.000773562
0.000773893
0.000773893
0.000773562
0.00077297
0.000772161
0.000771171
0.000770036
0.000768781
0.000767421
0.000765957
0.000764379
0.000776931
0.000778472
0.000779892
0.000781206
0.000782417
0.000783516
0.000784479
0.000785273
0.000785858
0.000786188
0.000786188
0.000785858
0.000785273
0.000784479
0.000783516
0.000782417
0.000781206
0.000779892
0.000778472
0.000776931
0.000787323
0.000788856
0.000790255
0.00079154
0.00079272
0.000793791
0.000794733
0.000795515
0.000796096
0.000796427
0.000796427
0.000796096
0.000795515
0.000794733
0.000793791
0.00079272
0.00079154
0.000790255
0.000788856
0.000787323
0.000796013
0.000797572
0.000798979
0.000800257
0.000801422
0.000802477
0.000803406
0.00080418
0.00080476
0.000805095
0.000805095
0.00080476
0.00080418
0.000803406
0.000802477
0.000801422
0.000800257
0.000798979
0.000797572
0.000796013
0.000803384
0.000805007
0.000806454
0.000807752
0.000808922
0.000809974
0.000810898
0.000811672
0.000812255
0.000812595
0.000812595
0.000812255
0.000811672
0.000810898
0.000809974
0.000808922
0.000807752
0.000806454
0.000805007
0.000803384
0.000809756
0.000811483
0.000813005
0.000814352
0.000815549
0.000816613
0.000817544
0.000818323
0.000818912
0.00081926
0.00081926
0.000818912
0.000818323
0.000817544
0.000816613
0.000815549
0.000814352
0.000813005
0.000811483
0.000809756
0.000815398
0.000817269
0.000818903
0.000820328
0.000821575
0.000822669
0.000823618
0.000824409
0.000825008
0.000825365
0.000825365
0.000825008
0.000824409
0.000823618
0.000822669
0.000821575
0.000820328
0.000818903
0.000817269
0.000815398
0.000820535
0.000822591
0.000824373
0.000825908
0.000827231
0.000828373
0.000829351
0.000830161
0.000830774
0.000831142
0.000831142
0.000830774
0.000830161
0.000829351
0.000828373
0.000827231
0.000825908
0.000824373
0.000822591
0.000820535
0.000825363
0.000827645
0.000829612
0.000831289
0.000832712
0.000833922
0.000834942
0.000835797
0.000836468
0.000836873
0.000836873
0.000836468
0.000835797
0.000834942
0.000833922
0.000832712
0.000831289
0.000829612
0.000827645
0.000825363
0.000830055
0.000832604
0.000834793
0.000836645
0.000838195
0.000839583
0.000840758
0.000841703
0.000842402
0.000842824
0.000842824
0.000842402
0.000841703
0.000840758
0.000839583
0.000838195
0.000836645
0.000834793
0.000832604
0.000830055
0.000834774
0.000837631
0.000840082
0.000842196
0.000844039
0.000845552
0.000846802
0.000847796
0.000848525
0.000848964
0.000848964
0.000848525
0.000847796
0.000846802
0.000845552
0.000844039
0.000842196
0.000840082
0.000837631
0.000834774
0.000839675
0.000842889
0.000845718
0.000848174
0.00085021
0.000851866
0.000853206
0.000854256
0.000855017
0.000855471
0.000855471
0.000855017
0.000854256
0.000853206
0.000851866
0.00085021
0.000848174
0.000845718
0.000842889
0.000839675
0.000844918
0.00084861
0.000851887
0.000854636
0.000856892
0.000858708
0.000860152
0.000861265
0.000862059
0.000862527
0.000862527
0.000862059
0.000861265
0.000860152
0.000858708
0.000856892
0.000854636
0.000851887
0.00084861
0.000844918
0.000850706
0.000855008
0.000858701
0.000861778
0.000864282
0.000866276
0.000867836
0.000869018
0.000869847
0.000870328
0.000870328
0.000869847
0.000869018
0.000867836
0.000866276
0.000864282
0.000861778
0.000858701
0.000855008
0.000850706
0.000857349
0.00086222
0.000866381
0.000869826
0.000872604
0.000874792
0.000876479
0.000877733
0.000878597
0.000879089
0.000879089
0.000878597
0.000877733
0.000876479
0.000874792
0.000872604
0.000869826
0.000866381
0.00086222
0.000857349
0.000864956
0.00087049
0.000875184
0.00087904
0.000882117
0.000884512
0.000886329
0.000887658
0.000888555
0.000889056
0.000889056
0.000888555
0.000887658
0.000886329
0.000884512
0.000882117
0.00087904
0.000875184
0.00087049
0.000864956
0.000873793
0.000880107
0.000885413
0.000889725
0.000893123
0.00089573
0.000897677
0.000899075
0.000900001
0.000900508
0.000900508
0.000900001
0.000899075
0.000897677
0.00089573
0.000893123
0.000889725
0.000885413
0.000880107
0.000873793
0.000884187
0.000891425
0.000897432
0.000902242
0.00090597
0.000908783
0.000910847
0.000912304
0.00091325
0.000913757
0.000913757
0.00091325
0.000912304
0.000910847
0.000908783
0.00090597
0.000902242
0.000897432
0.000891425
0.000884187
0.000896534
0.000904877
0.000911693
0.000917069
0.000921066
0.000924032
0.000926179
0.000927673
0.000928629
0.000929135
0.000929135
0.000928629
0.000927673
0.000926179
0.000924032
0.000921066
0.000917069
0.000911693
0.000904877
0.000896534
0.000911468
0.00092119
0.000928714
0.000934498
0.000938749
0.00094184
0.00094404
0.000945545
0.000946496
0.000946992
0.000946992
0.000946496
0.000945545
0.00094404
0.00094184
0.000938749
0.000934498
0.000928714
0.00092119
0.000911468
0.00092964
0.000940547
0.000948848
0.00095503
0.000959472
0.000962621
0.000964812
0.000966284
0.000967199
0.000967672
0.000967672
0.000967199
0.000966284
0.000964812
0.000962621
0.000959472
0.00095503
0.000948848
0.000940547
0.00092964
0.000951256
0.000963618
0.000972712
0.000979194
0.000983687
0.000986766
0.000988851
0.000990221
0.000991059
0.000991487
0.000991487
0.000991059
0.000990221
0.000988851
0.000986766
0.000983687
0.000979194
0.000972712
0.000963618
0.000951256
0.000977124
0.000991219
0.00100099
0.00100751
0.0010118
0.00101461
0.00101645
0.00101762
0.00101833
0.00101869
0.00101869
0.00101833
0.00101762
0.00101645
0.00101461
0.0010118
0.00100751
0.00100099
0.000991219
0.000977124
0.00100835
0.00102438
0.00103438
0.00104043
0.0010441
0.00104636
0.00104778
0.00104865
0.00104916
0.00104942
0.00104942
0.00104916
0.00104865
0.00104778
0.00104636
0.0010441
0.00104043
0.00103438
0.00102438
0.00100835
0.00104673
0.00106445
0.00107353
0.00107815
0.00108064
0.00108204
0.00108284
0.00108329
0.00108354
0.00108367
0.00108367
0.00108354
0.00108329
0.00108284
0.00108204
0.00108064
0.00107815
0.00107353
0.00106445
0.00104673
0.00109609
0.00111297
0.00111833
0.00112027
0.00112105
0.0011213
0.00112131
0.00112122
0.00112115
0.00112115
0.00112115
0.00112115
0.00112122
0.00112131
0.0011213
0.00112105
0.00112027
0.00111833
0.00111297
0.00109609
8.6328e-05
8.63102e-05
8.6294e-05
8.62799e-05
8.62685e-05
8.62603e-05
8.62562e-05
8.6257e-05
8.62733e-05
8.63215e-05
8.6374e-05
8.64282e-05
8.64838e-05
8.65406e-05
8.65983e-05
8.66567e-05
8.67157e-05
8.67749e-05
8.68343e-05
8.68935e-05
8.69523e-05
8.70106e-05
8.7068e-05
8.71244e-05
8.71795e-05
8.72332e-05
8.7285e-05
8.73349e-05
8.73826e-05
8.74278e-05
8.74704e-05
8.751e-05
8.75465e-05
8.75797e-05
8.76096e-05
8.76362e-05
8.766e-05
8.77398e-05
8.77074e-05
8.77366e-05
0.00016909
0.000168948
0.000168804
0.000168662
0.000168522
0.000168388
0.000168262
0.000168147
0.000168047
0.000168007
0.000168045
0.000168101
0.000168165
0.000168234
0.000168307
0.000168384
0.000168466
0.000168551
0.00016864
0.000168732
0.000168826
0.000168923
0.00016902
0.000169118
0.000169216
0.000169312
0.000169407
0.000169499
0.000169587
0.000169672
0.000169753
0.00016983