/*--------------------------------*- C++ -*----------------------------------*\
  =========                 |
  \\      /  F ield         | OpenFOAM: The Open Source CFD Toolbox
   \\    /   O peration     | Website:  https://openfoam.org
    \\  /    A nd           | Version:  6
     \\/     M anipulation  |
\*---------------------------------------------------------------------------*/
FoamFile
{
    version     2.0;
    format      ascii;
    class       volScalarField;
    location    "60";
    object      pos;
}
// * * * * * * * * * * * * * * * * * * * * * * * * * * * * * * * * * * * * * //

dimensions      [0 -3 1 0 0 1 0];

internalField   nonuniform List<scalar> 
8800
(
0.000998512
0.00100256
0.00100443
0.00100541
0.00100608
0.0010067
0.00100735
0.00100805
0.00100881
0.00100962
0.00101048
0.00101137
0.0010123
0.00101325
0.00101422
0.0010152
0.00101618
0.00101716
0.00101814
0.00101912
0.00102008
0.00102103
0.00102197
0.00102289
0.00102378
0.00102466
0.0010255
0.00102631
0.00102709
0.00102783
0.00102853
0.00102919
0.00102983
0.00103044
0.00103104
0.00103162
0.00103218
0.00103272
0.00103324
0.00103374
0.000967292
0.000971888
0.000974008
0.000975054
0.000975758
0.000976388
0.00097704
0.000977745
0.000978504
0.000979315
0.00098017
0.000981059
0.000981976
0.000982912
0.000983859
0.000984813
0.000985767
0.000986716
0.000987657
0.000988586
0.0009895
0.000990396
0.000991274
0.000992129
0.000992961
0.000993765
0.000994538
0.000995276
0.000995976
0.000996635
0.000997252
0.000997832
0.000998396
0.000998949
0.000999489
0.00100002
0.00100053
0.00100104
0.00100152
0.00100198
0.000938814
0.000944694
0.000947077
0.000948164
0.000948848
0.000949456
0.00095009
0.000950779
0.000951523
0.000952317
0.000953151
0.000954018
0.000954906
0.00095581
0.000956721
0.000957632
0.000958539
0.000959436
0.00096032
0.000961188
0.000962037
0.000962865
0.000963672
0.000964454
0.000965211
0.000965939
0.000966635
0.000967295
0.000967917
0.000968497
0.000969032
0.000969561
0.000970094
0.000970621
0.000971142
0.000971658
0.000972168
0.00097267
0.000973159
0.000973631
0.000913563
0.00092042
0.00092315
0.00092432
0.000925006
0.000925591
0.000926198
0.000926858
0.000927572
0.000928334
0.000929133
0.00092996
0.000930806
0.000931662
0.000932521
0.000933377
0.000934224
0.000935059
0.000935878
0.000936679
0.00093746
0.00093822
0.000938958
0.000939673
0.000940364
0.000941028
0.000941663
0.000942263
0.000942827
0.000943354
0.000943862
0.000944407
0.000944952
0.000945498
0.000946046
0.000946596
0.000947147
0.000947694
0.000948233
0.000948759
0.000891257
0.000898824
0.000901878
0.000903167
0.000903878
0.000904451
0.00090503
0.000905654
0.000906329
0.000907047
0.0009078
0.000908577
0.000909369
0.000910168
0.000910968
0.000911763
0.000912548
0.00091332
0.000914077
0.000914817
0.000915539
0.000916243
0.00091693
0.000917597
0.000918246
0.000918874
0.000919478
0.000920053
0.000920597
0.000921113
0.0009217
0.000922295
0.000922899
0.000923512
0.000924133
0.000924762
0.000925395
0.000926029
0.000926658
0.000927275
0.000871516
0.000879658
0.000882999
0.000884408
0.000885154
0.00088572
0.000886271
0.000886857
0.000887487
0.000888157
0.000888857
0.000889578
0.000890313
0.000891054
0.000891795
0.000892532
0.00089326
0.000893979
0.000894686
0.000895381
0.000896064
0.000896736
0.000897397
0.000898048
0.000898688
0.000899316
0.000899929
0.000900524
0.000901098
0.000901721
0.000902397
0.000903088
0.000903795
0.000904516
0.000905249
0.000905993
0.000906743
0.000907497
0.000908246
0.000908985
0.00085405
0.000862643
0.000866236
0.00086776
0.000868544
0.000869105
0.00086963
0.000870178
0.000870762
0.000871382
0.000872029
0.000872697
0.000873377
0.000874065
0.000874755
0.000875444
0.000876129
0.000876811
0.000877488
0.000878162
0.000878833
0.000879502
0.00088017
0.000880839
0.000881508
0.000882177
0.000882844
0.000883509
0.00088418
0.000884958
0.000885762
0.000886589
0.000887435
0.000888298
0.000889173
0.000890059
0.000890951
0.000891846
0.000892738
0.000893617
0.000838612
0.000847515
0.000851323
0.000852956
0.000853779
0.00085434
0.000854841
0.000855354
0.000855896
0.00085647
0.000857069
0.000857689
0.000858324
0.000858969
0.000859622
0.000860279
0.00086094
0.000861607
0.000862278
0.000862958
0.000863646
0.000864344
0.000865054
0.000865778
0.000866515
0.000867266
0.000868029
0.000868802
0.000869664
0.0008706
0.000871567
0.00087256
0.000873574
0.000874603
0.000875642
0.000876687
0.000877736
0.000878785
0.000879829
0.000880859
0.000824967
0.000834033
0.000838018
0.000839754
0.000840619
0.000841184
0.000841669
0.000842151
0.000842658
0.000843193
0.000843754
0.000844337
0.000844939
0.000845556
0.000846187
0.000846832
0.000847491
0.000848165
0.000848858
0.00084957
0.000850306
0.000851065
0.000851851
0.000852663
0.000853503
0.000854372
0.000855273
0.000856206
0.00085728
0.000858401
0.000859557
0.00086074
0.000861941
0.000863153
0.000864368
0.000865581
0.000866793
0.000868
0.000869199
0.000870381
0.000812904
0.000821988
0.000826108
0.000827941
0.000828853
0.000829428
0.000829902
0.000830363
0.000830843
0.000831349
0.000831883
0.000832442
0.000833026
0.000833632
0.00083426
0.000834913
0.000835591
0.000836297
0.000837035
0.000837808
0.000838618
0.000839467
0.000840357
0.000841288
0.000842261
0.000843278
0.000844347
0.000845502
0.000846778
0.000848106
0.00084947
0.000850859
0.000852261
0.000853665
0.000855061
0.000856445
0.000857816
0.000859177
0.000860525
0.000861854
0.000802229
0.000811195
0.000815407
0.000817331
0.000818293
0.000818886
0.000819359
0.000819807
0.00082027
0.000820759
0.000821278
0.000821828
0.000822409
0.00082302
0.000823665
0.000824344
0.000825062
0.000825822
0.000826628
0.000827483
0.000828391
0.000829354
0.000830372
0.000831446
0.000832576
0.000833764
0.000835009
0.000836421
0.000837915
0.000839465
0.00084105
0.000842655
0.000844264
0.000845864
0.000847441
0.000848989
0.000850512
0.000852015
0.000853501
0.000854964
0.000792769
0.000801497
0.000805755
0.000807759
0.000808776
0.000809396
0.000809876
0.000810323
0.00081078
0.000811264
0.000811781
0.000812336
0.000812928
0.000813562
0.000814239
0.000814963
0.000815739
0.000816571
0.000817463
0.00081842
0.000819445
0.00082054
0.000821705
0.00082294
0.000824246
0.000825625
0.000827093
0.000828735
0.000830457
0.000832239
0.000834053
0.000835879
0.000837697
0.000839491
0.000841242
0.000842945
0.000844606
0.000846235
0.000847842
0.000849423
0.00078437
0.000792755
0.000797013
0.000799087
0.000800161
0.000800816
0.000801313
0.000801769
0.000802231
0.000802721
0.00080325
0.000803822
0.00080444
0.00080511
0.000805834
0.000806618
0.000807467
0.000808386
0.000809379
0.000810452
0.000811608
0.000812849
0.000814174
0.000815582
0.000817074
0.000818653
0.000820364
0.000822234
0.000824191
0.00082621
0.000828256
0.000830304
0.000832329
0.00083431
0.000836226
0.000838068
0.00083985
0.000841585
0.000843292
0.00084497
0.000776894
0.000784851
0.000789061
0.000791192
0.000792326
0.000793023
0.000793547
0.000794021
0.000794499
0.000795007
0.000795558
0.000796158
0.000796815
0.000797532
0.000798316
0.000799172
0.000800106
0.000801123
0.000802229
0.000803428
0.000804724
0.000806118
0.000807611
0.000809201
0.000810886
0.000812661
0.00081463
0.000816731
0.000818923
0.000821181
0.000823461
0.000825727
0.000827951
0.00083011
0.000832176
0.00083414
0.000836021
0.000837839
0.000839624
0.000841375
0.000770215
0.000777679
0.000781799
0.000783969
0.000785163
0.000785908
0.000786468
0.000786969
0.000787473
0.000788008
0.000788591
0.000789231
0.000789936
0.000790711
0.000791564
0.000792501
0.000793528
0.000794651
0.000795876
0.000797208
0.00079865
0.000800203
0.000801868
0.000803643
0.000805527
0.00080752
0.000809728
0.00081206
0.000814487
0.000816983
0.000819491
0.00082197
0.000824383
0.000826705
0.000828903
0.000830967
0.000832923
0.000834797
0.000836621
0.000838425
0.000764222
0.000771151
0.000775136
0.000777329
0.000778579
0.000779378
0.000779981
0.000780518
0.000781056
0.000781627
0.000782251
0.000782938
0.000783698
0.000784539
0.000785468
0.000786493
0.000787619
0.000788853
0.000790202
0.000791669
0.000793259
0.000794974
0.000796812
0.000798772
0.000800855
0.000803084
0.000805517
0.000808078
0.000810736
0.000813467
0.000816198
0.000818879
0.000821466
0.000823919
0.000826216
0.000828358
0.000830365
0.000832271
0.000834121
0.000835951
0.0007588
0.000765193
0.000769002
0.00077119
0.000772493
0.000773349
0.000774
0.000774582
0.000775161
0.000775775
0.000776446
0.000777187
0.00077801
0.000778921
0.000779931
0.000781047
0.000782276
0.000783625
0.000785098
0.000786703
0.000788442
0.000790316
0.000792327
0.000794469
0.000796746
0.000799221
0.000801876
0.000804664
0.000807549
0.000810484
0.000813418
0.000816288
0.000819036
0.000821614
0.000823996
0.000826186
0.000828211
0.000830118
0.000831961
0.00083379
0.00075386
0.000759719
0.000763333
0.000765497
0.000766838
0.000767747
0.000768453
0.000769084
0.000769711
0.000770375
0.000771099
0.000771899
0.000772787
0.000773773
0.000774867
0.000776077
0.00077741
0.000778873
0.000780473
0.000782213
0.000784099
0.000786133
0.000788312
0.000790636
0.000793098
0.000795798
0.000798667
0.000801675
0.000804781
0.000807933
0.000811068
0.000814114
0.000817002
0.000819677
0.000822113
0.000824315
0.000826321
0.00082819
0.000829992
0.000831789
0.000749321
0.000754658
0.000758065
0.000760187
0.000761556
0.000762516
0.000763277
0.000763961
0.000764641
0.000765357
0.000766138
0.000767
0.000767957
0.00076902
0.000770199
0.000771502
0.000772936
0.000774511
0.000776231
0.000778103
0.00078013
0.000782314
0.000784655
0.000787151
0.000789831
0.000792738
0.00079582
0.000799045
0.000802368
0.000805729
0.000809053
0.000812256
0.000815259
0.000817999
0.000820449
0.00082262
0.000824562
0.00082635
0.00082807
0.000829799
0.000745115
0.000749948
0.000753141
0.000755207
0.000756592
0.000757598
0.000758412
0.000759151
0.000759885
0.000760658
0.000761497
0.000762423
0.00076345
0.000764589
0.000765851
0.000767244
0.000768779
0.000770461
0.000772299
0.000774297
0.000776461
0.000778791
0.00078129
0.000783949
0.00078685
0.000789962
0.000793255
0.000796694
0.000800229
0.00080379
0.000807288
0.000810627
0.000813714
0.00081648
0.000818896
0.000820983
0.000822805
0.00082446
0.00082605
0.000827669
0.000741181
0.000745535
0.000748509
0.000750508
0.0007519
0.000752943
0.000753808
0.000754601
0.000755391
0.000756221
0.00075712
0.000758109
0.000759204
0.000760418
0.000761761
0.000763243
0.000764874
0.000766661
0.000768611
0.000770731
0.000773026
0.000775498
0.000778148
0.00078099
0.00078409
0.000787404
0.000790905
0.000794555
0.000798296
0.000802046
0.000805701
0.000809148
0.00081228
0.00081502
0.000817343
0.00081928
0.000820917
0.000822374
0.000823777
0.000825237
0.000737465
0.000741369
0.000744126
0.000746048
0.000747436
0.00074851
0.000749421
0.000750266
0.00075111
0.000751996
0.000752954
0.000754006
0.000755168
0.000756453
0.000757875
0.000759442
0.000761164
0.000763051
0.000765109
0.000767345
0.000769765
0.000772372
0.000775166
0.000778201
0.000781492
0.000785005
0.000788711
0.000792568
0.000796508
0.000800434
0.000804224
0.000807745
0.000810872
0.000813524
0.000815678
0.000817384
0.000818754
0.000819935
0.000821081
0.00082232
0.000733923
0.000737408
0.000739952
0.000741788
0.000743163
0.000744261
0.000745212
0.000746105
0.000747001
0.000747941
0.000748956
0.000750068
0.000751294
0.000752649
0.000754145
0.000755792
0.000757601
0.000759581
0.000761741
0.000764087
0.000766625
0.00076936
0.0007723
0.000775526
0.000779003
0.000782712
0.000786621
0.000790681
0.000794812
0.000798898
0.000802794
0.000806344
0.000809405
0.000811889
0.000813781
0.000815155
0.000816155
0.000816964
0.000817765
0.000818708
0.000730516
0.000733613
0.000735949
0.000737695
0.000739048
0.000740161
0.000741147
0.000742083
0.000743027
0.000744019
0.000745088
0.000746256
0.000747543
0.000748962
0.000750527
0.000752249
0.000754139
0.000756207
0.000758461
0.000760909
0.000763558
0.000766413
0.000769522
0.000772919
0.000776579
0.000780479
0.000784589
0.000788847
0.000793158
0.000797383
0.00080135
0.000804872
0.000807789
0.000810003
0.000811517
0.000812433
0.000812937
0.000813253
0.000813598
0.000814147
0.000727211
0.00072995
0.000732086
0.000733739
0.000735063
0.000736183
0.000737195
0.000738169
0.000739156
0.000740195
0.000741313
0.000742535
0.000743877
0.000745355
0.000746983
0.000748774
0.000750737
0.000752885
0.000755225
0.000757768
0.000760519
0.000763491
0.000766773
0.000770338
0.000774175
0.000778266
0.000782573
0.000787023
0.0007915
0.000795837
0.000799828
0.000803252
0.000805924
0.000807744
0.000808733
0.000809033
0.000808882
0.000808553
0.000808303
0.000808328
0.000723978
0.000726392
0.000728336
0.000729893
0.00073118
0.000732299
0.000733331
0.000734336
0.00073536
0.00073644
0.000737603
0.000738871
0.000740263
0.000741794
0.000743478
0.000745329
0.000747359
0.000749577
0.000751996
0.000754623
0.000757466
0.000760587
0.000764018
0.000767744
0.000771756
0.000776034
0.000780534
0.000785167
0.000789793
0.000794208
0.000798165
0.000801401
0.000803703
0.000804971
0.00080525
0.000804738
0.000803733
0.000802565
0.000801536
0.000800867
0.000720796
0.000722913
0.000724675
0.000726134
0.000727378
0.000728489
0.000729531
0.00073056
0.000731614
0.000732729
0.000733929
0.000735237
0.000736671
0.000738247
0.00073998
0.000741883
0.000743969
0.000746249
0.000748734
0.000751436
0.000754376
0.000757644
0.00076122
0.000765103
0.000769286
0.000773748
0.000778436
0.000783242
0.000787994
0.000792445
0.000796293
0.000799228
0.000801005
0.000801521
0.000800863
0.000799291
0.000797179
0.000794925
0.000792876
0.000791282
0.000717644
0.000719492
0.000721082
0.000722442
0.000723638
0.000724731
0.000725776
0.000726819
0.000727896
0.000729037
0.000730267
0.000731606
0.000733074
0.000734686
0.000736458
0.000738402
0.000740534
0.000742865
0.000745406
0.000748168
0.000751241
0.000754636
0.000758348
0.000762381
0.000766732
0.000771377
0.000776247
0.000781213
0.000786063
0.000790495
0.000794144
0.000796636
0.000797691
0.00079721
0.000795328
0.000792387
0.00078885
0.000785188
0.000781798
0.000778961
0.000714507
0.000716112
0.000717539
0.000718801
0.000719941
0.000721009
0.000722048
0.000723096
0.000724186
0.000725343
0.000726592
0.000727954
0.000729445
0.000731082
0.000732882
0.000734857
0.000737022
0.000739392
0.000741977
0.000744829
0.000748018
0.00075153
0.000755371
0.000759551
0.000764068
0.000768891
0.000773937
0.000779046
0.000783959
0.000788307
0.000791641
0.000793518
0.00079361
0.000791827
0.000788367
0.000783669
0.000778298
0.000772807
0.000767642
0.000763125
0.000711372
0.000712757
0.000714032
0.000715194
0.000716274
0.000717308
0.000718331
0.000719374
0.000720465
0.000721628
0.000722885
0.000724256
0.000725759
0.00072741
0.000729224
0.000731217
0.000733403
0.000735798
0.000738424
0.000741393
0.000744682
0.000748301
0.000752266
0.00075659
0.00076127
0.000766267
0.00077148
0.000776713
0.000781646
0.000785827
0.000788711
0.00078976
0.000788596
0.000785138
0.00077966
0.000772718
0.00076499
0.000757114
0.000749579
0.000742733
0.000708228
0.000709417
0.000710548
0.00071161
0.000712624
0.000713615
0.000714611
0.000715636
0.000716715
0.000717871
0.000719123
0.000720491
0.000721992
0.000723642
0.000725457
0.000727453
0.000729646
0.000732051
0.000734784
0.000737836
0.000741211
0.000744929
0.000749013
0.000753478
0.000758318
0.000763485
0.000768855
0.000774186
0.000779088
0.000783006
0.000785275
0.000785246
0.000782473
0.000776887
0.000768852
0.000759056
0.000748295
0.000737294
0.000726562
0.000717456
0.000705067
0.000706081
0.000707076
0.000708038
0.00070898
0.000709918
0.000710873
0.000711867
0.000712921
0.000714055
0.000715286
0.000716635
0.000718118
0.000719752
0.000721553
0.000723537
0.000725723
0.00072821
0.000731015
0.000734134
0.000737587
0.000741401
0.000745601
0.000750204
0.000755202
0.000760532
0.000766045
0.000771445
0.000776255
0.000779798
0.000781262
0.000779861
0.000775063
0.000766809
0.000755561
0.000742147
0.00072748
0.000712356
0.000697655
0.000686178
0.000701885
0.000702741
0.000703607
0.000704469
0.00070533
0.000706204
0.000707106
0.000708054
0.000709066
0.000710159
0.000711353
0.000712666
0.000714115
0.000715716
0.000717486
0.000719445
0.000721689
0.000724244
0.000727101
0.000730278
0.000733805
0.000737711
0.000742025
0.000746764
0.000751914
0.0007574
0.000763038
0.000768472
0.000773121
0.000776163
0.00077661
0.000773503
0.000766204
0.000754649
0.0007394
0.000721423
0.000701711
0.000680951
0.000662611
0.00064777
0.000698675
0.00069939
0.000700134
0.000700892
0.000701665
0.000702462
0.000703295
0.000704179
0.000705131
0.000706167
0.000707304
0.000708561
0.000709959
0.00071151
0.000713235
0.000715243
0.000717547
0.000720138
0.000723036
0.000726269
0.000729866
0.000733863
0.000738288
0.000743159
0.000748455
0.000754086
0.000759828
0.000765255
0.000769668
0.000772074
0.000771274
0.000766101
0.000755773
0.000740198
0.000720021
0.000696319
0.000670101
0.000643491
0.000620209
0.00060096
0.000695435
0.000696024
0.00069665
0.0006973
0.000697975
0.000698681
0.000699428
0.000700229
0.000701101
0.000702057
0.000703117
0.000704301
0.000705631
0.000707117
0.000708895
0.000710948
0.000713273
0.000715891
0.000718828
0.000722114
0.000725782
0.000729868
0.000734401
0.000739397
0.000744831
0.00075059
0.000756411
0.000761787
0.000765885
0.000767518
0.00076524
0.000757634
0.000743724
0.000723348
0.000697187
0.000666355
0.000631883
0.000599095
0.000569431
0.000544664
0.000692163
0.000692636
0.000693146
0.000693684
0.00069425
0.000694849
0.000695491
0.000696188
0.000696958
0.000697814
0.000698777
0.000699868
0.000701122
0.000702674
0.000704474
0.000706533
0.000708872
0.000711516
0.000714493
0.000717833
0.000721571
0.000725743
0.000730378
0.000735492
0.000741049
0.000746918
0.000752789
0.000758068
0.000761776
0.000762506
0.000758538
0.000748154
0.000730132
0.00070417
0.000670903
0.000631188
0.000588714
0.000547351
0.000509608
0.000479815
0.000688857
0.000689223
0.000689618
0.000690036
0.000690479
0.000690954
0.000691469
0.000692041
0.000692687
0.000693422
0.000694268
0.000695309
0.000696615
0.000698156
0.000699946
0.000702007
0.000704361
0.000707035
0.000710054
0.00071345
0.000717256
0.000721509
0.00072624
0.000731458
0.000737122
0.000743078
0.000748968
0.000754104
0.000757353
0.000757077
0.000751251
0.000737821
0.000715256
0.00068303
0.00064168
0.000592216
0.000540224
0.000488289
0.00044412
0.000405803
0.000685517
0.000685781
0.000686058
0.000686346
0.000686651
0.000686982
0.00068735
0.000687774
0.000688276
0.000688871
0.000689695
0.000690748
0.000692023
0.000693541
0.000695324
0.000697392
0.000699767
0.000702474
0.000705538
0.00070899
0.000712862
0.00071719
0.000722005
0.000727314
0.000733065
0.000739082
0.000744956
0.000749909
0.000752647
0.000751296
0.000743521
0.000726911
0.000699582
0.000660674
0.000610236
0.000551746
0.000487551
0.000427783
0.0003731
0.000324171
0.00068214
0.000682305
0.000682458
0.000682605
0.000682755
0.000682921
0.00068312
0.000683373
0.000683726
0.000684318
0.000685105
0.000686108
0.000687349
0.000688851
0.000690634
0.000692716
0.000695119
0.000697864
0.000700975
0.00070448
0.000708414
0.000712809
0.000717696
0.000723077
0.000728893
0.000734942
0.000740769
0.000745503
0.000747699
0.000745255
0.000735541
0.000715811
0.000683851
0.000638586
0.000580148
0.000512513
0.000436527
0.000368088
0.000300743
0.000238913
0.000678728
0.000678791
0.000678812
0.000678802
0.000678778
0.000678759
0.000678768
0.000678892
0.000679215
0.000679723
0.000680442
0.000681399
0.000682616
0.000684111
0.000685904
0.000688009
0.000690445
0.00069323
0.000696389
0.000699947
0.000703935
0.000708388
0.000713332
0.000718767
0.000724622
0.000730675
0.000736424
0.000740914
0.000742559
0.000739059
0.00072753
0.000704951
0.000668845
0.000617904
0.000553562
0.000477643
0.00039387
0.000315244
0.00023539
0.00015847
0.0010342
0.00103462
0.00103501
0.00103535
0.00103564
0.00103588
0.00103607
0.00103621
0.0010363
0.00103637
0.00103637
0.0010363
0.00103621
0.00103607
0.00103588
0.00103564
0.00103535
0.00103501
0.00103462
0.0010342
0.00100242
0.00100282
0.00100319
0.00100351
0.00100379
0.00100402
0.0010042
0.00100433
0.00100441
0.00100445
0.00100445
0.00100441
0.00100433
0.0010042
0.00100402
0.00100379
0.00100351
0.00100319
0.00100282
0.00100242
0.000974081
0.000974501
0.000974885
0.000975228
0.000975524
0.000975769
0.00097596
0.000976096
0.000976181
0.000976221
0.000976221
0.000976181
0.000976096
0.00097596
0.000975769
0.000975524
0.000975228
0.000974885
0.000974501
0.000974081
0.000949264
0.00094974
0.000950181
0.000950577
0.000950921
0.000951207
0.000951432
0.000951595
0.000951698
0.000951749
0.000951749
0.000951698
0.000951595
0.000951432
0.000951207
0.000950921
0.000950577
0.000950181
0.00094974
0.000949264
0.000927873
0.000928441
0.000928969
0.000929448
0.000929867
0.000930219
0.000930498
0.000930702
0.000930832
0.000930898
0.000930898
0.000930832
0.000930702
0.000930498
0.000930219
0.000929867
0.000929448
0.000928969
0.000928441
0.000927873
0.000909702
0.000910389
0.000911031
0.000911617
0.000912133
0.000912569
0.000912917
0.000913174
0.000913342
0.000913427
0.000913427
0.000913342
0.000913174
0.000912917
0.000912569
0.000912133
0.000911617
0.000911031
0.000910389
0.000909702
0.000894474
0.000895297
0.000896072
0.000896781
0.00089741
0.000897945
0.000898375
0.000898695
0.000898905
0.000899015
0.000899015
0.000898905
0.000898695
0.000898375
0.000897945
0.00089741
0.000896781
0.000896072
0.000895297
0.000894474
0.000881866
0.000882837
0.000883754
0.000884598
0.000885351
0.000885995
0.000886515
0.000886904
0.000887163
0.000887298
0.000887298
0.000887163
0.000886904
0.000886515
0.000885995
0.000885351
0.000884598
0.000883754
0.000882837
0.000881866
0.00087154
0.000872661
0.000873724
0.00087471
0.000875592
0.00087635
0.000876966
0.000877429
0.000877739
0.000877902
0.000877902
0.000877739
0.000877429
0.000876966
0.00087635
0.000875592
0.00087471
0.000873724
0.000872661
0.00087154
0.000863159
0.000864426
0.000865635
0.000866761
0.000867775
0.00086865
0.000869363
0.000869903
0.000870264
0.000870456
0.000870456
0.000870264
0.000869903
0.000869363
0.00086865
0.000867775
0.000866761
0.000865635
0.000864426
0.000863159
0.000856405
0.000857809
0.000859156
0.000860418
0.000861561
0.000862552
0.000863364
0.000863979
0.000864393
0.000864614
0.000864614
0.000864393
0.000863979
0.000863364
0.000862552
0.000861561
0.000860418
0.000859156
0.000857809
0.000856405
0.000850983
0.000852511
0.000853986
0.000855375
0.000856642
0.000857745
0.000858653
0.000859344
0.00085981
0.00086006
0.00086006
0.00085981
0.000859344
0.000858653
0.000857745
0.000856642
0.000855375
0.000853986
0.000852511
0.000850983
0.00084663
0.000848266
0.000849854
0.000851361
0.000852742
0.000853953
0.000854953
0.000855717
0.000856234
0.000856512
0.000856512
0.000856234
0.000855717
0.000854953
0.000853953
0.000852742
0.000851361
0.000849854
0.000848266
0.00084663
0.000843115
0.000844838
0.000846524
0.000848134
0.000849621
0.000850931
0.000852018
0.000852851
0.000853418
0.000853724
0.000853724
0.000853418
0.000852851
0.000852018
0.000850931
0.000849621
0.000848134
0.000846524
0.000844838
0.000843115
0.000840225
0.000842019
0.000843788
0.00084549
0.000847072
0.000848472
0.000849638
0.000850535
0.000851147
0.00085148
0.00085148
0.000851147
0.000850535
0.000849638
0.000848472
0.000847072
0.00084549
0.000843788
0.000842019
0.000840225
0.000837788
0.000839633
0.000841468
0.000843248
0.000844912
0.000846391
0.000847627
0.000848579
0.000849231
0.000849587
0.000849587
0.000849231
0.000848579
0.000847627
0.000846391
0.000844912
0.000843248
0.000841468
0.000839633
0.000837788
0.000835638
0.000837514
0.000839397
0.000841238
0.000842971
0.000844516
0.000845811
0.000846809
0.000847493
0.000847868
0.000847868
0.000847493
0.000846809
0.000845811
0.000844516
0.000842971
0.000841238
0.000839397
0.000837514
0.000835638
0.000833622
0.000835506
0.000837417
0.000839304
0.000841088
0.000842685
0.000844024
0.000845056
0.000845765
0.000846154
0.000846154
0.000845765
0.000845056
0.000844024
0.000842685
0.000841088
0.000839304
0.000837417
0.000835506
0.000833622
0.000831588
0.000833454
0.000835373
0.000837284
0.000839103
0.000840732
0.000842098
0.00084315
0.000843873
0.000844271
0.000844271
0.000843873
0.00084315
0.000842098
0.000840732
0.000839103
0.000837284
0.000835373
0.000833454
0.000831588
0.000829378
0.000831198
0.000833099
0.000835012
0.000836841
0.00083848
0.000839852
0.000840906
0.00084163
0.000842029
0.000842029
0.00084163
0.000840906
0.000839852
0.00083848
0.000836841
0.000835012
0.000833099
0.000831198
0.000829378
0.000826825
0.000828563
0.000830415
0.000832299
0.000834108
0.000835726
0.000837076
0.00083811
0.000838818
0.00083921
0.00083921
0.000838818
0.00083811
0.000837076
0.000835726
0.000834108
0.000832299
0.000830415
0.000828563
0.000826825
0.000823736
0.000825347
0.000827108
0.000828922
0.000830672
0.000832228
0.00083352
0.000834502
0.000835173
0.000835547
0.000835547
0.000835173
0.000834502
0.00083352
0.000832228
0.000830672
0.000828922
0.000827108
0.000825347
0.000823736
0.000819885
0.000821309
0.000822923
0.000824612
0.000826246
0.000827683
0.000828867
0.000829757
0.000830363
0.000830702
0.000830702
0.000830363
0.000829757
0.000828867
0.000827683
0.000826246
0.000824612
0.000822923
0.000821309
0.000819885
0.000814997
0.000816154
0.000817543
0.000819026
0.000820466
0.000821705
0.000822714
0.000823488
0.000824048
0.000824364
0.000824364
0.000824048
0.000823488
0.000822714
0.000821705
0.000820466
0.000819026
0.000817543
0.000816154
0.000814997
0.000808733
0.000809511
0.000810563
0.000811727
0.000812861
0.00081398
0.000814886
0.000815554
0.000816015
0.000816278
0.000816278
0.000816015
0.000815554
0.000814886
0.00081398
0.000812861
0.000811727
0.000810563
0.000809511
0.000808733
0.000800665
0.000800907
0.000801461
0.00080229
0.000803275
0.000804133
0.000804781
0.000805241
0.000805564
0.000805755
0.000805755
0.000805564
0.000805241
0.000804781
0.000804133
0.000803275
0.00080229
0.000801461
0.000800907
0.000800665
0.000790249
0.000789727
0.000789802
0.000790352
0.00079095
0.000791407
0.0007917
0.000791885
0.000792025
0.000792123
0.000792123
0.000792025
0.000791885
0.0007917
0.000791407
0.00079095
0.000790352
0.000789802
0.000789727
0.000790249
0.000776781
0.000775434
0.000775084
0.000775093
0.000775114
0.000775026
0.000774859
0.000774698
0.00077461
0.00077459
0.00077459
0.00077461
0.000774698
0.000774859
0.000775026
0.000775114
0.000775093
0.000775084
0.000775434
0.000776781
0.000759477
0.000757493
0.000756412
0.000755626
0.000754868
0.000754088
0.000753358
0.000752778
0.000752416
0.000752256
0.000752256
0.000752416
0.000752778
0.000753358
0.000754088
0.000754868
0.000755626
0.000756412
0.000757493
0.000759477
0.000737955
0.000734927
0.000732788
0.000730932
0.000729199
0.000727591
0.00072621
0.000725154
0.00072448
0.000724162
0.000724162
0.00072448
0.000725154
0.00072621
0.000727591
0.000729199
0.000730932
0.000732788
0.000734927
0.000737955
0.000711086
0.000706624
0.000703087
0.000699902
0.000697035
0.00069451
0.000692428
0.00069087
0.000689869
0.000689384
0.000689384
0.000689869
0.00069087
0.000692428
0.00069451
0.000697035
0.000699902
0.000703087
0.000706624
0.000711086
0.000677694
0.000671377
0.000666133
0.000661434
0.000657371
0.000653923
0.000651162
0.000649124
0.000647813
0.000647171
0.000647171
0.000647813
0.000649124
0.000651162
0.000653923
0.000657371
0.000661434
0.000666133
0.000671377
0.000677694
0.00063652
0.000627969
0.000620844
0.000614613
0.000609447
0.000605197
0.000601869
0.000599442
0.000597879
0.000597107
0.000597107
0.000597879
0.000599442
0.000601869
0.000605197
0.000609447
0.000614613
0.000620844
0.000627969
0.00063652
0.00058634
0.00057537
0.000566491
0.000559053
0.00055298
0.000548147
0.00054445
0.000541792
0.000540089
0.000539249
0.000539249
0.000540089
0.000541792
0.00054445
0.000548147
0.00055298
0.000559053
0.000566491
0.00057537
0.00058634
0.00052653
0.000513373
0.00050294
0.000494662
0.000488154
0.000483135
0.000479382
0.000476724
0.000475034
0.000474201
0.000474201
0.000475034
0.000476724
0.000479382
0.000483135
0.000488154
0.000494662
0.00050294
0.000513373
0.00052653
0.000456788
0.000441688
0.000430537
0.000422183
0.000415883
0.000411172
0.000407729
0.000405329
0.000403814
0.000403065
0.000403065
0.000403814
0.000405329
0.000407729
0.000411172
0.000415883
0.000422183
0.000430537
0.000441688
0.000456788
0.000376978
0.000361173
0.000350554
0.000343082
0.000337677
0.00033376
0.000330964
0.000329048
0.000327847
0.000327246
0.000327246
0.000327847
0.000329048
0.000330964
0.00033376
0.000337677
0.000343082
0.000350554
0.000361173
0.000376978
0.000288145
0.000273642
0.00026502
0.000259339
0.000255386
0.000252609
0.000250681
0.000249386
0.000248578
0.00024816
0.00024816
0.000248578
0.000249386
0.000250681
0.000252609
0.000255386
0.000259339
0.00026502
0.000273642
0.000288145
0.000192415
0.000181852
0.000176483
0.000173127
0.000170851
0.000169309
0.000168278
0.000167605
0.000167182
0.000166929
0.000166929
0.000167182
0.000167605
0.000168278
0.000169309
0.000170851
0.000173127
0.000176483
0.000181852
0.000192415
9.37821e-05
8.94208e-05
8.75659e-05
8.63477e-05
8.55178e-05
8.49883e-05
8.46606e-05
8.44581e-05
8.43256e-05
8.41961e-05
8.41961e-05
8.43256e-05
8.44581e-05
8.46606e-05
8.49883e-05
8.55178e-05
8.63477e-05
8.75659e-05
8.94208e-05
9.37821e-05
0.00103374
0.00103324
0.00103272
0.00103218
0.00103162
0.00103104
0.00103044
0.00102983
0.00102919
0.00102853
0.00102783
0.00102709
0.00102631
0.0010255
0.00102466
0.00102378
0.00102289
0.00102197
0.00102103
0.00102008
0.00101912
0.00101814
0.00101716
0.00101618
0.0010152
0.00101422
0.00101325
0.0010123
0.00101137
0.00101048
0.00100962
0.00100881
0.00100805
0.00100735
0.0010067
0.00100608
0.00100541
0.00100443
0.00100256
0.000998512
0.00100198
0.00100152
0.00100104
0.00100053
0.00100002
0.000999489
0.000998949
0.000998396
0.000997832
0.000997252
0.000996635
0.000995976
0.000995276
0.000994538
0.000993765
0.000992961
0.000992129
0.000991274
0.000990396
0.0009895
0.000988586
0.000987657
0.000986716
0.000985767
0.000984813
0.000983859
0.000982912
0.000981976
0.000981059
0.00098017
0.000979315
0.000978504
0.000977745
0.00097704
0.000976388