/*--------------------------------*- C++ -*----------------------------------*\
  =========                 |
  \\      /  F ield         | OpenFOAM: The Open Source CFD Toolbox
   \\    /   O peration     | Website:  https://openfoam.org
    \\  /    A nd           | Version:  6
     \\/     M anipulation  |
\*---------------------------------------------------------------------------*/
FoamFile
{
    version     2.0;
    format      ascii;
    class       volScalarField;
    location    "30";
    object      chargeDensity;
}
// * * * * * * * * * * * * * * * * * * * * * * * * * * * * * * * * * * * * * //

dimensions      [0 -3 1 0 0 1 0];

internalField   nonuniform List<scalar> 
8800
(
0.000910776
0.000914851
0.000916686
0.000917752
0.000918449
0.000919092
0.000919768
0.000920503
0.000921298
0.000922149
0.00092305
0.000923991
0.000924966
0.000925966
0.000926985
0.000928017
0.000929055
0.000930095
0.000931133
0.000932165
0.000933187
0.000934197
0.000935193
0.00093617
0.000937126
0.000938057
0.00093896
0.00093983
0.000940663
0.000941457
0.000942209
0.000942921
0.00094357
0.000944184
0.000944777
0.000945348
0.000945899
0.000946428
0.000946932
0.000947407
0.000798074
0.000801394
0.000803482
0.00080473
0.000805587
0.000806323
0.00080706
0.00080784
0.000808675
0.000809562
0.000810497
0.000811472
0.000812477
0.000813505
0.000814547
0.000815597
0.000816649
0.000817696
0.000818734
0.00081976
0.000820768
0.000821756
0.000822723
0.000823664
0.000824576
0.000825458
0.000826304
0.000827111
0.000827875
0.00082859
0.000829245
0.000829785
0.000830249
0.000830687
0.000831101
0.000831496
0.000831873
0.000832232
0.000832573
0.000832893
0.000693459
0.000698129
0.000700467
0.000701794
0.000702675
0.000703429
0.000704183
0.000704977
0.000705824
0.000706723
0.000707665
0.000708642
0.000709645
0.000710664
0.00071169
0.000712715
0.000713731
0.000714731
0.00071571
0.000716664
0.000717588
0.00071848
0.000719336
0.000720156
0.000720936
0.000721675
0.000722369
0.000723013
0.000723599
0.000724104
0.000724449
0.000724657
0.00072485
0.000725013
0.000725155
0.000725285
0.000725406
0.00072552
0.000725628
0.000725729
0.000598197
0.000604957
0.00060789
0.000609311
0.000610175
0.000610895
0.000611618
0.000612387
0.000613209
0.00061408
0.00061499
0.000615929
0.000616884
0.000617845
0.0006188
0.00061974
0.000620655
0.000621539
0.000622384
0.000623186
0.000623942
0.000624647
0.000625302
0.000625905
0.000626456
0.000626952
0.00062739
0.000627759
0.000628034
0.000628147
0.000627985
0.000627858
0.000627701
0.000627523
0.000627335
0.000627147
0.000626966
0.000626795
0.000626634
0.000626485
0.000512806
0.000521805
0.000525511
0.000527124
0.000527994
0.000528668
0.000529332
0.000530039
0.000530797
0.000531598
0.000532431
0.000533281
0.000534135
0.00053498
0.000535801
0.000536589
0.000537333
0.000538025
0.000538659
0.000539229
0.000539733
0.000540169
0.000540536
0.000540837
0.000541071
0.000541235
0.000541321
0.000541302
0.000541112
0.000540589
0.000540084
0.000539569
0.000539035
0.000538494
0.000537961
0.000537448
0.00053696
0.000536503
0.000536078
0.000535684
0.000437058
0.000448357
0.000452913
0.00045478
0.000455681
0.000456307
0.000456892
0.000457508
0.000458165
0.000458855
0.000459564
0.000460276
0.000460974
0.000461645
0.000462272
0.000462846
0.000463354
0.000463789
0.000464145
0.000464417
0.000464604
0.000464706
0.000464725
0.000464662
0.000464517
0.000464285
0.000463945
0.000463444
0.000462658
0.000461673
0.000460783
0.000459889
0.000458995
0.000458115
0.000457266
0.000456457
0.000455699
0.000454994
0.000454343
0.000453744
0.000370441
0.000383998
0.000389422
0.000391569
0.000392517
0.000393093
0.000393586
0.000394086
0.000394611
0.000395154
0.000395699
0.000396229
0.000396727
0.000397176
0.000397563
0.000397874
0.000398099
0.000398232
0.000398267
0.000398201
0.000398034
0.000397769
0.000397407
0.000396951
0.0003964
0.000395741
0.000394941
0.00039392
0.00039253
0.000391253
0.000390019
0.000388798
0.000387599
0.00038644
0.000385335
0.000384296
0.000383331
0.000382443
0.00038163
0.00038089
0.000312286
0.000327918
0.000334181
0.000336617
0.000337622
0.000338148
0.000338539
0.000338908
0.000339279
0.000339648
0.000340001
0.000340319
0.000340586
0.000340784
0.0003409
0.000340923
0.000340842
0.000340653
0.000340351
0.000339936
0.00033941
0.000338775
0.000338036
0.000337194
0.000336244
0.000335167
0.00033391
0.000332361
0.000330647
0.000329099
0.000327596
0.000326126
0.000324705
0.000323347
0.000322069
0.00032088
0.000319789
0.000318798
0.000317903
0.000317097
0.000261822
0.000279228
0.000286265
0.000288988
0.000290055
0.000290535
0.000290822
0.00029105
0.000291256
0.000291438
0.000291584
0.000291676
0.000291699
0.000291635
0.000291474
0.000291204
0.000290819
0.000290314
0.000289687
0.000288941
0.000288079
0.000287104
0.000286022
0.000284831
0.000283524
0.000282073
0.000280416
0.000278426
0.000276585
0.000274849
0.000273168
0.000271542
0.000269989
0.000268524
0.000267161
0.000265909
0.000264776
0.000263762
0.000262863
0.000262068
0.000218236
0.000237041
0.000244758
0.000247758
0.000248894
0.000249333
0.000249519
0.000249609
0.000249648
0.000249642
0.000249581
0.000249449
0.000249231
0.000248914
0.000248488
0.000247943
0.000247276
0.000246483
0.000245567
0.00024453
0.000243378
0.000242115
0.000240746
0.000239269
0.000237673
0.000235928
0.00023398
0.000231775
0.000229843
0.000228009
0.000226246
0.000224559
0.000222966
0.000221481
0.000220116
0.000218879
0.000217777
0.000216812
0.000215978
0.000215258
0.00018073
0.000200519
0.000208804
0.000212062
0.000213274
0.000213684
0.000213779
0.000213739
0.000213621
0.000213437
0.00021318
0.000212839
0.0002124
0.000211853
0.00021119
0.000210404
0.000209493
0.000208458
0.000207302
0.000206031
0.00020465
0.000203166
0.000201582
0.000199896
0.000198092
0.00019613
0.000193914
0.00019177
0.000189826
0.000187986
0.000186231
0.000184568
0.000183015
0.000181584
0.000180285
0.000179125
0.000178112
0.000177247
0.000176525
0.000175928
0.000148551
0.000168899
0.000177629
0.000181124
0.000182418
0.000182813
0.000182833
0.000182679
0.000182421
0.000182078
0.000181648
0.000181122
0.000180492
0.000179748
0.000178886
0.000177903
0.000176798
0.000175574
0.000174238
0.000172795
0.000171254
0.000169622
0.000167902
0.000166089
0.000164167
0.000162097
0.000159804
0.000157757
0.00015588
0.000154114
0.000152443
0.000150877
0.000149428
0.000148108
0.000146923
0.000145878
0.000144987
0.000144251
0.000143668
0.000143218
0.000121008
0.000141508
0.000150553
0.000154259
0.000155644
0.00015604
0.000156004
0.000155757
0.000155382
0.000154904
0.000154329
0.000153651
0.000152864
0.000151964
0.000150948
0.000149816
0.00014857
0.000147215
0.000145759
0.000144211
0.000142579
0.000140871
0.00013909
0.000137232
0.000135279
0.000133199
0.000130972
0.000129065
0.00012732
0.000125694
0.000124171
0.000122755
0.000121455
0.000120281
0.000119235
0.000118324
0.000117563
0.000116959
0.000116515
0.000116213
9.74821e-05
0.000117761
0.00012699
0.000130877
0.000132358
0.000132774
0.000132703
0.000132387
0.00013192
0.000131338
0.000130648
0.000129853
0.000128949
0.000127934
0.00012681
0.000125578
0.000124243
0.000122813
0.000121297
0.000119705
0.000118046
0.000116328
0.000114556
0.000112725
0.000110814
0.000108749
0.000106748
0.000105026
0.000103466
0.000102031
0.0001007
9.947e-05
9.83458e-05
9.73311e-05
9.6427e-05
9.56436e-05
9.50011e-05
9.45109e-05
9.41763e-05
9.40076e-05
7.7427e-05
9.71532e-05
0.000106438
0.000110471
0.000112052
0.000112506
0.000112424
0.000112064
0.000111533
0.000110875
0.000110105
0.000109227
0.000108243
0.000107156
0.000105967
0.000104682
0.000103308
0.000101853
0.000100329
9.87469e-05
9.71166e-05
9.54472e-05
9.3743e-05
9.2e-05
9.01977e-05
8.82341e-05
8.65016e-05
8.50036e-05
8.36658e-05
8.24557e-05
8.13422e-05
8.03174e-05
7.93768e-05
7.85061e-05
7.77197e-05
7.70459e-05
7.64964e-05
7.60892e-05
7.58344e-05
7.57606e-05
6.03745e-05
7.925e-05
8.84685e-05
9.26143e-05
9.42957e-05
9.48035e-05
9.47325e-05
9.43539e-05
9.37864e-05
9.30818e-05
9.22616e-05
9.13353e-05
9.03084e-05
8.91853e-05
8.79719e-05
8.66758e-05
8.53051e-05
8.38705e-05
8.23837e-05
8.08568e-05
7.93012e-05
7.77262e-05
7.61367e-05
7.45302e-05
7.28902e-05
7.11241e-05
6.96544e-05
6.84045e-05
6.73123e-05
6.6323e-05
6.54291e-05
6.46149e-05
6.38557e-05
6.31255e-05
6.24408e-05
6.18382e-05
6.13345e-05
6.09599e-05
6.074e-05
6.07079e-05
4.58843e-05
6.3711e-05
7.27257e-05
7.6936e-05
7.87207e-05
7.92969e-05
7.92576e-05
7.88845e-05
7.83063e-05
7.7583e-05
7.67423e-05
7.57981e-05
7.476e-05
7.36351e-05
7.24316e-05
7.11599e-05
6.98288e-05
6.84502e-05
6.70372e-05
6.56022e-05
6.41573e-05
6.27122e-05
6.1273e-05
5.98383e-05
5.83333e-05
5.68482e-05
5.5647e-05
5.46577e-05
5.38223e-05
5.30744e-05
5.24081e-05
5.17974e-05
5.12034e-05
5.05959e-05
4.99822e-05
4.93976e-05
4.8877e-05
4.84677e-05
4.82143e-05
4.81605e-05
3.35818e-05
5.02109e-05
5.89203e-05
6.3144e-05
6.50156e-05
6.56703e-05
6.56837e-05
6.53396e-05
6.47751e-05
6.40573e-05
6.32209e-05
6.22859e-05
6.12643e-05
6.01661e-05
5.90015e-05
5.7779e-05
5.65126e-05
5.52157e-05
5.39009e-05
5.25813e-05
5.12692e-05
4.99749e-05
4.87047e-05
4.7459e-05
4.61233e-05
4.49587e-05
4.40282e-05
4.33006e-05
4.27234e-05
4.22316e-05
4.17937e-05
4.1369e-05
4.09103e-05
4.03819e-05
3.97844e-05
3.91545e-05
3.85453e-05
3.8025e-05
3.76616e-05
3.75144e-05
2.31438e-05
3.8477e-05
4.67947e-05
5.09829e-05
5.29243e-05
5.36601e-05
5.37388e-05
5.34416e-05
5.29113e-05
5.2221e-05
5.14115e-05
5.05075e-05
4.95242e-05
4.8474e-05
4.7369e-05
4.62181e-05
4.50374e-05
4.38411e-05
4.26424e-05
4.14545e-05
4.02898e-05
3.91588e-05
3.80686e-05
3.70207e-05
3.59378e-05
3.50654e-05
3.44067e-05
3.39394e-05
3.36147e-05
3.33655e-05
3.31372e-05
3.28711e-05
3.25079e-05
3.20049e-05
3.13585e-05
3.061e-05
2.98315e-05
2.91163e-05
2.8559e-05
2.82402e-05
1.42915e-05
2.82757e-05
3.61321e-05
4.02381e-05
4.22283e-05
4.30423e-05
4.3194e-05
4.29571e-05
4.24771e-05
4.18321e-05
4.10675e-05
4.02121e-05
3.92842e-05
3.82986e-05
3.72691e-05
3.62063e-05
3.51265e-05
3.40447e-05
3.29745e-05
3.19294e-05
3.09217e-05
2.99624e-05
2.90589e-05
2.81779e-05
2.74051e-05
2.68179e-05
2.64263e-05
2.62124e-05
2.6128e-05
2.61004e-05
2.60541e-05
2.59095e-05
2.55917e-05
2.50496e-05
2.4278e-05
2.33261e-05
2.22879e-05
2.12849e-05
2.04425e-05
1.98671e-05
6.78479e-06
1.94061e-05
2.67479e-05
3.07285e-05
3.27439e-05
3.36285e-05
3.3856e-05
3.36884e-05
3.32707e-05
3.26846e-05
3.1979e-05
3.11859e-05
3.03265e-05
2.9418e-05
2.84755e-05
2.75116e-05
2.65424e-05
2.55832e-05
2.46482e-05
2.37508e-05
2.29036e-05
2.21175e-05
2.1401e-05
2.07239e-05
2.02331e-05
1.99176e-05
1.97836e-05
1.98117e-05
1.99503e-05
2.01177e-05
2.02176e-05
2.01472e-05
1.98133e-05
1.91551e-05
1.81681e-05
1.69142e-05
1.55127e-05
1.41183e-05
1.28905e-05
1.19652e-05
4.17659e-07
1.16943e-05
1.8484e-05
2.23004e-05
2.43159e-05
2.52599e-05
2.55617e-05
2.5468e-05
2.51208e-05
2.46031e-05
2.39666e-05
2.32456e-05
2.24642e-05
2.16411e-05
2.0793e-05
1.99339e-05
1.908e-05
1.82466e-05
1.74482e-05
1.66983e-05
1.60096e-05
1.53928e-05
1.48447e-05
1.44115e-05
1.41739e-05
1.41124e-05
1.42223e-05
1.44774e-05
1.48177e-05
1.51486e-05
1.53509e-05
1.52966e-05
1.48714e-05
1.40044e-05
1.26945e-05
1.10218e-05
9.13673e-06
7.23206e-06
5.50595e-06
4.12652e-06
-4.98618e-06
4.98985e-06
1.12044e-05
1.4823e-05
1.68132e-05
1.78022e-05
1.8173e-05
1.81539e-05
1.78813e-05
1.74379e-05
1.68769e-05
1.62344e-05
1.55365e-05
1.48035e-05
1.40533e-05
1.3301e-05
1.25628e-05
1.18541e-05
1.11895e-05
1.05825e-05
1.00456e-05
9.59011e-06
9.20411e-06
9.01895e-06
9.01745e-06
9.19133e-06
9.52819e-06
9.99173e-06
1.0509e-05
1.09666e-05
1.12195e-05
1.11108e-05
1.05027e-05
9.3142e-06
7.55156e-06
5.31992e-06
2.80832e-06
2.54097e-07
-2.10159e-06
-4.05562e-06
-9.57708e-06
-8.38066e-07
4.79172e-06
8.18453e-06
1.01244e-05
1.1142e-05
1.15731e-05
1.16256e-05
1.14281e-05
1.10613e-05
1.05787e-05
1.00176e-05
9.40544e-06
8.76381e-06
8.11133e-06
7.46428e-06
6.83867e-06
6.25001e-06
5.71275e-06
5.24039e-06
4.84523e-06
4.53401e-06
4.35089e-06
4.37627e-06
4.58905e-06
4.97848e-06
5.52322e-06
6.17388e-06
6.83937e-06
7.38153e-06
7.62359e-06
7.37515e-06
6.47242e-06
4.82478e-06
2.45116e-06
-5.09645e-07
-3.82062e-06
-7.19189e-06
-1.03342e-05
-1.3007e-05
-1.34828e-05
-5.90287e-06
-8.56003e-07
2.28899e-06
4.15514e-06
5.18329e-06
5.66338e-06
5.78116e-06
5.65563e-06
5.36429e-06
4.95978e-06
4.47975e-06
3.95238e-06
3.40018e-06
2.84236e-06
2.29583e-06
1.77667e-06
1.30026e-06
8.80899e-07
5.32009e-07
2.65863e-07
8.61785e-08
1.13153e-07
3.33572e-07
7.42153e-07
1.32782e-06
2.0603e-06
2.87435e-06
3.65536e-06
4.23305e-06
4.39145e-06
3.90032e-06
2.56632e-06
2.90731e-07
-2.88807e-06
-6.78686e-06
-1.11091e-05
-1.55029e-05
-1.96254e-05
-2.31956e-05
-1.68115e-05
-1.03031e-05
-5.82723e-06
-2.94615e-06
-1.17529e-06
-1.55046e-07
3.60352e-07
5.34123e-07
4.74462e-07
2.54206e-07
-7.57616e-08
-4.78196e-07
-9.24671e-07
-1.39226e-06
-1.86139e-06
-2.31481e-06
-2.7364e-06
-3.11094e-06
-3.42436e-06
-3.6633e-06
-3.81902e-06
-3.82538e-06
-3.62528e-06
-3.2305e-06
-2.64429e-06
-1.8809e-06
-9.81079e-07
-2.92912e-08
8.30152e-07
1.38626e-06
1.37426e-06
5.15739e-07
-1.41658e-06
-4.5276e-06
-8.75083e-06
-1.38454e-05
-1.94414e-05
-2.51144e-05
-3.0461e-05
-3.5157e-05
-1.96543e-05
-1.41243e-05
-1.01991e-05
-7.59225e-06
-5.93571e-06
-4.94198e-06
-4.40654e-06
-4.18857e-06
-4.19147e-06
-4.34805e-06
-4.61005e-06
-4.9413e-06
-5.31365e-06
-5.70419e-06
-6.09327e-06
-6.46349e-06
-6.79878e-06
-7.08406e-06
-7.30559e-06
-7.44961e-06
-7.49306e-06
-7.32878e-06
-6.97103e-06
-6.41782e-06
-5.66985e-06
-4.74562e-06
-3.69836e-06
-2.63601e-06
-1.73991e-06
-1.27213e-06
-1.55812e-06
-2.93509e-06
-5.66993e-06
-9.87139e-06
-1.54343e-05
-2.20442e-05
-2.92421e-05
-3.6519e-05
-4.34041e-05
-4.95245e-05
-2.20878e-05
-1.74406e-05
-1.40391e-05
-1.17113e-05
-1.01853e-05
-9.23626e-06
-8.69722e-06
-8.44898e-06
-8.40687e-06
-8.51006e-06
-8.7136e-06
-8.98297e-06
-9.29078e-06
-9.6145e-06
-9.93467e-06
-1.02339e-05
-1.04963e-05
-1.07068e-05
-1.08521e-05
-1.09191e-05
-1.08091e-05
-1.05047e-05
-1.00075e-05
-9.31043e-06
-8.41438e-06
-7.34408e-06
-6.16829e-06
-5.02384e-06
-4.138e-06
-3.83644e-06
-4.51998e-06
-6.59798e-06
-1.03843e-05
-1.59891e-05
-2.32558e-05
-3.17784e-05
-4.09912e-05
-5.02876e-05
-5.91225e-05
-6.70659e-05
-2.41757e-05
-2.03164e-05
-1.74064e-05
-1.53576e-05
-1.39755e-05
-1.30884e-05
-1.25629e-05
-1.23001e-05
-1.22272e-05
-1.229e-05
-1.24475e-05
-1.26671e-05
-1.29227e-05
-1.31924e-05
-1.34572e-05
-1.36999e-05
-1.39046e-05
-1.40561e-05
-1.41398e-05
-1.40963e-05
-1.38542e-05
-1.34261e-05
-1.28026e-05
-1.19729e-05
-1.09394e-05
-9.73528e-06
-8.44856e-06
-7.25167e-06
-6.42859e-06
-6.38378e-06
-7.61146e-06
-1.06099e-05
-1.57496e-05
-2.31399e-05
-3.25591e-05
-4.34891e-05
-5.52392e-05
-6.70926e-05
-7.84235e-05
-8.873e-05
-2.5971e-05
-2.28072e-05
-2.0353e-05
-1.85788e-05
-1.73511e-05
-1.65422e-05
-1.6048e-05
-1.5788e-05
-1.57006e-05
-1.57387e-05
-1.58652e-05
-1.60499e-05
-1.62682e-05
-1.64992e-05
-1.67243e-05
-1.69267e-05
-1.70903e-05
-1.71992e-05
-1.72174e-05
-1.70391e-05
-1.66854e-05
-1.61471e-05
-1.54069e-05
-1.44522e-05
-1.32886e-05
-1.19601e-05
-1.05788e-05
-9.36044e-06
-8.65868e-06
-8.97503e-06
-1.09191e-05
-1.50989e-05
-2.19548e-05
-3.15945e-05
-4.37163e-05
-5.76697e-05
-7.26213e-05
-8.77325e-05
-0.000102295
-0.000115934
-2.75176e-05
-2.49612e-05
-2.29249e-05
-2.14178e-05
-2.03524e-05
-1.96368e-05
-1.91917e-05
-1.8953e-05
-1.88696e-05
-1.89011e-05
-1.90143e-05
-1.91818e-05
-1.93802e-05
-1.95899e-05
-1.97929e-05
-1.99723e-05
-2.0112e-05
-2.01809e-05
-2.00715e-05
-1.97944e-05
-1.93453e-05
-1.87054e-05
-1.78537e-05
-1.67778e-05
-1.5488e-05
-1.40423e-05
-1.25814e-05
-1.13743e-05
-1.08588e-05
-1.16551e-05
-1.45146e-05
-2.01818e-05
-2.91842e-05
-4.16303e-05
-5.71258e-05
-7.48686e-05
-9.38693e-05
-0.000113158
-0.000132044
-0.000149102
-2.88512e-05
-2.68202e-05
-2.51634e-05
-2.39129e-05
-2.30156e-05
-2.24075e-05
-2.20297e-05
-2.18321e-05
-2.1773e-05
-2.18181e-05
-2.19384e-05
-2.21085e-05
-2.23064e-05
-2.2514e-05
-2.27134e-05
-2.28871e-05
-2.30016e-05
-2.29616e-05
-2.27593e-05
-2.23982e-05
-2.18602e-05
-2.11213e-05
-2.01589e-05
-1.89618e-05
-1.7547e-05
-1.5989e-05
-1.44634e-05
-1.33018e-05
-1.30437e-05
-1.44524e-05
-1.84528e-05
-2.5958e-05
-3.76078e-05
-5.35201e-05
-7.32001e-05
-9.56816e-05
-0.000119817
-0.000144503
-0.000168928
-0.000189642
-3.00014e-05
-2.84202e-05
-2.71052e-05
-2.60998e-05
-2.53749e-05
-2.48876e-05
-2.45955e-05
-2.44597e-05
-2.44468e-05
-2.4528e-05
-2.46776e-05
-2.48719e-05
-2.50898e-05
-2.5315e-05
-2.55289e-05
-2.56919e-05
-2.57139e-05
-2.55816e-05
-2.53039e-05
-2.4864e-05
-2.42373e-05
-2.33973e-05
-2.23212e-05
-2.10002e-05
-1.94596e-05
-1.77935e-05
-1.62181e-05
-1.51385e-05
-1.52137e-05
-1.73781e-05
-2.2766e-05
-3.24998e-05
-4.73658e-05
-6.751e-05
-9.23406e-05
-0.000120728
-0.000151392
-0.000183562
-0.000213327
-0.000239003
-3.0992e-05
-2.97929e-05
-2.8784e-05
-2.80117e-05
-2.74626e-05
-2.71092e-05
-2.69213e-05
-2.68693e-05
-2.69258e-05
-2.70668e-05
-2.72691e-05
-2.75101e-05
-2.77684e-05
-2.80296e-05
-2.82444e-05
-2.83205e-05
-2.82543e-05
-2.80552e-05
-2.77071e-05
-2.71861e-05
-2.64657e-05
-2.55189e-05
-2.43237e-05
-2.28748e-05
-2.12073e-05
-1.94377e-05
-1.78282e-05
-1.68684e-05
-1.73554e-05
-2.04237e-05
-2.74579e-05
-3.98371e-05
-5.85412e-05
-8.37805e-05
-0.00011489
-0.000150601
-0.000189632
-0.00022988
-0.000266728
-0.000298847
-3.18426e-05
-3.09661e-05
-3.02308e-05
-2.96803e-05
-2.93104e-05
-2.91039e-05
-2.90393e-05
-2.90933e-05
-2.92431e-05
-2.94683e-05
-2.9747e-05
-3.00563e-05
-3.03709e-05
-3.06403e-05
-3.07642e-05
-3.07623e-05
-3.06384e-05
-3.03755e-05
-2.99515e-05
-2.93415e-05
-2.85191e-05
-2.74579e-05
-2.61377e-05
-2.45575e-05
-2.27631e-05
-2.08962e-05
-1.92697e-05
-1.84676e-05
-1.94428e-05
-2.3559e-05
-3.24931e-05
-4.7936e-05
-7.11225e-05
-0.000102387
-0.000141049
-0.00018578
-0.000235619
-0.000284558
-0.000330473
-0.000371417
-3.25693e-05
-3.19646e-05
-3.14747e-05
-3.11364e-05
-3.09497e-05
-3.09034e-05
-3.09813e-05
-3.1164e-05
-3.14306e-05
-3.17632e-05
-3.21398e-05
-3.25193e-05
-3.28439e-05
-3.30164e-05
-3.30817e-05
-3.30322e-05
-3.285e-05
-3.25143e-05
-3.20033e-05
-3.12935e-05
-3.03597e-05
-2.91771e-05
-2.77274e-05
-2.60145e-05
-2.40962e-05
-2.21405e-05
-2.05153e-05
-1.99067e-05
-2.14387e-05
-2.67292e-05
-3.77874e-05
-5.66736e-05
-8.49529e-05
-0.000123172
-0.000170739
-0.000226741
-0.000287399
-0.000348127
-0.000406904
-0.000455611
-3.31855e-05
-3.28107e-05
-3.25432e-05
-3.24101e-05
-3.24118e-05
-3.25394e-05
-3.27789e-05
-3.3112e-05
-3.35168e-05
-3.39768e-05
-3.4429e-05
-3.48001e-05
-3.50409e-05
-3.51824e-05
-3.52102e-05
-3.51062e-05
-3.4852e-05
-3.44292e-05
-3.38182e-05
-3.29977e-05
-3.19445e-05
-3.06354e-05
-2.90548e-05
-2.72116e-05
-2.51757e-05
-2.31428e-05
-2.15378e-05
-2.1154e-05
-2.32958e-05
-2.98535e-05
-4.31992e-05
-6.58134e-05
-9.96726e-05
-0.000145648
-0.000203311
-0.000271892
-0.000345271
-0.00042236
-0.000491524
-0.000552438
-3.37024e-05
-3.3525e-05
-3.34623e-05
-3.35308e-05
-3.37275e-05
-3.40429e-05
-3.44619e-05
-3.49647e-05
-3.55202e-05
-3.6057e-05
-3.64859e-05
-3.68102e-05
-3.70353e-05
-3.71441e-05
-3.7118e-05
-3.69406e-05
-3.65969e-05
-3.60716e-05
-3.53484e-05
-3.44085e-05
-3.32306e-05
-3.17938e-05
-3.00848e-05
-2.8118e-05
-2.59751e-05
-2.38794e-05
-2.23132e-05
-2.21777e-05
-2.49599e-05
-3.28275e-05
-4.8528e-05
-7.4991e-05
-0.000114668
-0.000168899
-0.000237965
-0.000318507
-0.000409276
-0.000499587
-0.000584266
-0.000660909
-3.41299e-05
-3.41265e-05
-3.42572e-05
-3.45266e-05
-3.49264e-05
-3.54429e-05
-3.60571e-05
-3.67187e-05
-3.73525e-05
-3.7864e-05
-3.82897e-05
-3.86109e-05
-3.88068e-05
-3.88604e-05
-3.87573e-05
-3.84858e-05
-3.80351e-05
-3.73939e-05
-3.6549e-05
-3.54842e-05
-3.41807e-05
-3.26192e-05
-3.07892e-05
-2.87097e-05
-2.64743e-05
-2.43327e-05
-2.28226e-05
-2.29486e-05
-2.63738e-05
-3.55317e-05
-5.35293e-05
-8.37305e-05
-0.00012905
-0.00019121
-0.000270577
-0.000363267
-0.000472321
-0.00057663
-0.000680557
-0.000777697
-3.44765e-05
-3.46325e-05
-3.4951e-05
-3.54245e-05
-3.60363e-05
-3.67655e-05
-3.7542e-05
-3.82754e-05
-3.89073e-05
-3.94532e-05
-3.98838e-05
-4.01762e-05
-4.03135e-05
-4.02843e-05
-4.00802e-05
-3.96949e-05
-3.91223e-05
-3.83549e-05
-3.73827e-05
-3.61922e-05
-3.47665e-05
-3.3088e-05
-3.11484e-05
-2.89715e-05
-2.66616e-05
-2.44929e-05
-2.30536e-05
-2.34436e-05
-2.74846e-05
-3.78467e-05
-5.79489e-05
-9.15229e-05
-0.000141889
-0.000211143
-0.000298466
-0.000402909
-0.000524987
-0.000645551
-0.000770269
-0.000894277
0.00094785
0.000948257
0.000948624
0.000948946
0.000949221
0.000949447
0.000949625
0.000949758
0.000949857
0.00094996
0.00094996
0.000949857
0.000949758
0.000949625
0.000949447
0.000949221
0.000948946
0.000948624
0.000948257
0.00094785
0.00083319
0.000833459
0.000833699
0.000833905
0.000834077
0.000834214
0.000834315
0.000834387
0.000834439
0.000834494
0.000834494
0.000834439
0.000834387
0.000834315
0.000834214
0.000834077
0.000833905
0.000833699
0.000833459
0.00083319
0.00072582
0.000725899
0.000725964
0.000726013
0.000726044
0.000726057
0.000726055
0.000726043
0.00072603
0.000726035
0.000726035
0.00072603
0.000726043
0.000726055
0.000726057
0.000726044
0.000726013
0.000725964
0.000725899
0.00072582
0.000626344
0.000626209
0.000626079
0.000625952
0.000625826
0.000625703
0.000625586
0.000625479
0.000625396
0.000625357
0.000625357
0.000625396
0.000625479
0.000625586
0.000625703
0.000625826
0.000625952
0.000626079
0.000626209
0.000626344
0.000535319
0.00053498
0.000534664
0.000534369
0.000534094
0.00053384
0.000533611
0.000533413
0.00053326
0.000533176
0.000533176
0.00053326
0.000533413
0.000533611
0.00053384
0.000534094
0.000534369
0.000534664
0.00053498
0.000535319
0.000453193
0.000452687
0.000452221
0.00045179
0.000451395
0.000451035
0.000450714
0.00045044
0.000450228
0.000450105
0.000450105
0.000450228
0.00045044
0.000450714
0.000451035
0.000451395
0.00045179
0.000452221
0.000452687
0.000453193
0.000380216
0.000379601
0.000379039
0.000378524
0.000378052
0.000377624
0.000377243
0.000376918
0.000376666
0.000376516
0.000376516
0.000376666
0.000376918
0.000377243
0.000377624
0.000378052
0.000378524
0.000379039
0.000379601
0.000380216
0.000316372
0.000315719
0.000315126
0.000314585
0.000314091
0.00031364
0.000313238
0.000312892
0.000312622
0.000312459
0.000312459
0.000312622
0.000312892
0.000313238
0.00031364
0.000314091
0.000314585
0.000315126
0.000315719
0.000316372
0.000261366
0.000260743
0.000260186
0.00025968
0.000259216
0.000258791
0.000258405
0.00025807
0.000257804
0.000257643
0.000257643
0.000257804
0.00025807
0.000258405
0.000258791
0.000259216
0.00025968
0.000260186
0.000260743
0.000261366
0.000214642
0.00021411
0.000213645
0.000213227
0.000212843
0.000212483
0.00021215
0.000211852
0.000211612
0.000211465
0.000211465
0.000211612
0.000211852
0.00021215
0.000212483
0.000212843
0.000213227
0.000213645
0.00021411
0.000214642
0.000175443
0.000175047
0.000174716
0.000174427
0.00017416
0.000173901
0.000173647
0.000173409
0.00017321
0.000173086
0.000173086
0.00017321
0.000173409
0.000173647
0.000173901
0.00017416
0.000174427
0.000174716
0.000175047
0.000175443
0.000142888
0.000142652
0.000142482
0.000142348
0.000142222
0.000142085
0.000141932
0.000141769
0.00014162
0.000141527
0.000141527
0.00014162
0.000141769
0.000141932
0.000142085
0.000142222
0.000142348
0.000142482
0.000142652
0.000142888
0.000116042
0.000115973
0.000115972
0.000116002
0.00011603
0.000116028
0.000115985
0.000115905
0.000115814
0.000115754
0.000115754
0.000115814
0.000115905
0.000115985
0.000116028
0.00011603
0.000116002
0.000115972
0.000115973
0.000116042
9.39816e-05
9.40685e-05
9.42302e-05
9.44235e-05
9.46056e-05
9.47405e-05
9.48098e-05
9.48157e-05
9.47824e-05
9.47554e-05
9.47554e-05
9.47824e-05
9.48157e-05
9.48098e-05
9.47405e-05
9.46056e-05
9.44235e-05
9.42302e-05
9.40685e-05
9.39816e-05
7.58464e-05
7.60624e-05
7.6367e-05
7.67092e-05
7.70361e-05
7.73012e-05
7.7478e-05
7.75646e-05
7.7585e-05
7.7587e-05
7.7587e-05
7.7585e-05
7.75646e-05
7.7478e-05
7.73012e-05
7.70361e-05
7.67092e-05
7.6367e-05
7.60624e-05
7.58464e-05
6.0857e-05
6.11614e-05
6.15763e-05
6.20421e-05
6.24947e-05
6.28752e-05
6.31479e-05
6.33058e-05
6.33726e-05
6.33985e-05
6.33985e-05
6.33726e-05
6.33058e-05
6.31479e-05
6.28752e-05
6.24947e-05
6.20421e-05
6.15763e-05
6.11614e-05
6.0857e-05
4.83151e-05
4.8658e-05
4.91419e-05
4.96985e-05
5.02507e-05
5.07255e-05
5.10774e-05
5.12935e-05
5.13971e-05
5.14409e-05
5.14409e-05
5.13971e-05
5.12935e-05
5.10774e-05
5.07255e-05
5.02507e-05
4.96985e-05
4.91419e-05
4.8658e-05
4.83151e-05
3.76093e-05
3.79337e-05
3.84388e-05
3.90465e-05
3.96658e-05
4.02085e-05
4.0618e-05
4.08757e-05
4.10043e-05
4.1059e-05
4.1059e-05
4.10043e-05
4.08757e-05
4.0618e-05
4.02085e-05
3.96658e-05
3.90465e-05
3.84388e-05
3.79337e-05
3.76093e-05
2.82039e-05
2.8447e-05
2.89191e-05
2.95322e-05
3.01804e-05
3.07586e-05
3.11995e-05
3.14784e-05
3.16181e-05
3.16758e-05
3.16758e-05
3.16181e-05
3.14784e-05
3.11995e-05
3.07586e-05
3.01804e-05
2.95322e-05
2.89191e-05
2.8447e-05
2.82039e-05
1.96223e-05
1.97152e-05
2.00941e-05
2.06603e-05
2.12922e-05
2.1867e-05
2.23076e-05
2.25834e-05
2.27176e-05
2.27692e-05
2.27692e-05
2.27176e-05
2.25834e-05
2.23076e-05
2.1867e-05
2.12922e-05
2.06603e-05
2.00941e-05
1.97152e-05
1.96223e-05
1.14274e-05
1.12942e-05
1.15122e-05
1.19709e-05
1.25329e-05
1.3057e-05
1.34583e-05
1.37014e-05
1.38102e-05
1.38452e-05
1.38452e-05
1.38102e-05
1.37014e-05
1.34583e-05
1.3057e-05
1.25329e-05
1.19709e-05
1.15122e-05
1.12942e-05
1.14274e-05
3.20101e-06
2.75614e-06
2.73514e-06
3.01448e-06
3.44126e-06
3.85553e-06
4.16927e-06
4.34176e-06
4.39943e-06
4.40455e-06
4.40455e-06
4.39943e-06
4.34175e-06
4.16927e-06
3.85553e-06
3.44126e-06
3.01448e-06
2.73514e-06
2.75614e-06
3.20101e-06
-5.47822e-06
-6.33487e-06
-6.68812e-06
-6.67632e-06
-6.46628e-06
-6.23877e-06
-6.07439e-06
-6.03932e-06
-6.1046e-06
-6.17078e-06
-6.17078e-06
-6.1046e-06
-6.03932e-06
-6.07439e-06
-6.23877e-06
-6.46628e-06
-6.67632e-06
-6.68812e-06
-6.33487e-06
-5.47822e-06
-1.50584e-05
-1.64489e-05
-1.72502e-05
-1.76186e-05
-1.77292e-05
-1.78777e-05
-1.80441e-05
-1.82141e-05
-1.8354e-05
-1.84594e-05
-1.84594e-05
-1.8354e-05
-1.82141e-05
-1.80441e-05
-1.78777e-05
-1.77292e-05
-1.76186e-05
-1.72502e-05
-1.64489e-05
-1.50584e-05
-2.60407e-05
-2.81198e-05
-2.95194e-05
-3.04691e-05
-3.11778e-05
-3.15724e-05
-3.19156e-05
-3.22421e-05
-3.25101e-05
-3.2685e-05
-3.2685e-05
-3.25101e-05
-3.22421e-05
-3.19156e-05
-3.15724e-05
-3.11778e-05
-3.04691e-05
-2.95194e-05
-2.81198e-05
-2.60407e-05
-3.90093e-05
-4.19816e-05
-4.42572e-05
-4.58841e-05
-4.69353e-05
-4.77329e-05
-4.84247e-05
-4.90146e-05
-4.94534e-05
-4.97155e-05
-4.97155e-05
-4.94534e-05
-4.90146e-05
-4.84247e-05
-4.77329e-05
-4.69353e-05
-4.58841e-05
-4.42572e-05
-4.19816e-05
-3.90093e-05
-5.46688e-05
-5.8883e-05
-6.20847e-05
-6.42835e-05
-6.59413e-05
-6.73003e-05
-6.8452e-05
-6.93799e-05
-7.0034e-05
-7.04039e-05
-7.04039e-05
-7.0034e-05
-6.93799e-05
-6.8452e-05
-6.73003e-05
-6.59413e-05
-6.42835e-05
-6.20847e-05
-5.88831e-05
-5.46688e-05
-7.39253e-05
-7.95732e-05
-8.36168e-05
-8.66848e-05
-8.91676e-05
-9.12493e-05
-9.29767e-05
-9.43202e-05
-9.52373e-05
-9.57374e-05
-9.57374e-05
-9.52373e-05
-9.43203e-05
-9.29767e-05
-9.12493e-05
-8.91676e-05
-8.66848e-05
-8.36168e-05
-7.95732e-05
-7.39253e-05
-9.78723e-05
-0.000104727
-0.000109969
-0.0001142
-0.000117736
-0.000120704
-0.000123121
-0.000124955
-0.000126181
-0.000126833
-0.000126833
-0.000126181
-0.000124955
-0.000123121
-0.000120704
-0.000117736
-0.0001142
-0.000109969
-0.000104727
-9.78723e-05
-0.000127001
-0.000135563
-0.000142396
-0.000148107
-0.000152918
-0.000156921
-0.00016012
-0.000162503
-0.000164074
-0.000164894
-0.000164894
-0.000164074
-0.000162503
-0.00016012
-0.000156921
-0.000152918
-0.000148107
-0.000142396
-0.000135563
-0.000127001
-0.000162706
-0.000173483
-0.000182326
-0.000189823
-0.000196087
-0.00020122
-0.000205249
-0.000208205
-0.000210132
-0.000211124
-0.000211124
-0.000210132
-0.000208205
-0.000205249
-0.00020122
-0.000196087
-0.000189823
-0.000182326
-0.000173483
-0.000162706
-0.000206493
-0.000220048
-0.000231299
-0.000240808
-0.000248599
-0.00025486
-0.000259686
-0.00026318
-0.000265436
-0.000266586
-0.000266586
-0.000265436
-0.00026318
-0.000259686
-0.00025486
-0.000248599
-0.000240808
-0.000231299
-0.000220048
-0.000206493
-0.000260014
-0.000276908
-0.000290849
-0.000302456
-0.00031162
-0.000318835
-0.00032431
-0.000328231
-0.00033075
-0.000332028
-0.000332028
-0.00033075
-0.000328231
-0.00032431
-0.000318835
-0.00031162
-0.000302456
-0.000290849
-0.000276908
-0.000260014
-0.000325127
-0.00034582
-0.000362223
-0.000375444
-0.000385769
-0.000393693
-0.00039959
-0.000403753
-0.000406406
-0.000407743
-0.000407743
-0.000406406
-0.000403753
-0.00039959
-0.000393693
-0.000385769
-0.000375444
-0.000362223
-0.00034582
-0.000325127
-0.00040311
-0.000427174
-0.000445908
-0.000460368
-0.000471318
-0.000479486
-0.00048543
-0.00048956
-0.000492165
-0.000493471
-0.000493471
-0.000492165
-0.00048956
-0.00048543
-0.000479486
-0.000471318
-0.000460368
-0.000445908
-0.000427174
-0.00040311
-0.000494468
-0.000521929
-0.000542175
-0.000557011
-0.000567803
-0.000575594
-0.000581121
-0.000584892
-0.000587244
-0.000588422
-0.000588422
-0.000587244
-0.000584892
-0.000581121
-0.000575594
-0.000567803
-0.000557011
-0.000542175
-0.000521929
-0.000494468
-0.000600146
-0.000630045
-0.000650431
-0.000664428
-0.000674119
-0.000680849
-0.000685483
-0.000688577
-0.000690483
-0.000691444
-0.000691444
-0.000690483
-0.000688577
-0.000685483
-0.000680849
-0.000674119
-0.000664428
-0.000650431
-0.000630045
-0.000600146
-0.000720201
-0.00075074
-0.000769364
-0.000781087
-0.00078871
-0.000793755
-0.000797099
-0.000799268
-0.000800585
-0.00080126
-0.00080126
-0.000800585
-0.000799268
-0.000797099
-0.000793755
-0.00078871
-0.000781087
-0.000769364
-0.00075074
-0.000720201
-0.000854314
-0.000882599
-0.000897042
-0.000905023
-0.000909791
-0.000912735
-0.000914565
-0.00091569
-0.000916359
-0.000916739
-0.000916739
-0.000916359
-0.00091569
-0.000914565
-0.000912735
-0.000909791
-0.000905023
-0.000897042
-0.000882599
-0.000854314
-0.0010023
-0.00102355
-0.00103076
-0.00103392
-0.00103553
-0.00103631