/*--------------------------------*- C++ -*----------------------------------*\
  =========                 |
  \\      /  F ield         | OpenFOAM: The Open Source CFD Toolbox
   \\    /   O peration     | Website:  https://openfoam.org
    \\  /    A nd           | Version:  6
     \\/     M anipulation  |
\*---------------------------------------------------------------------------*/
FoamFile
{
    version     2.0;
    format      ascii;
    class       volVectorField;
    location    "30";
    object      elec;
}
// * * * * * * * * * * * * * * * * * * * * * * * * * * * * * * * * * * * * * //

dimensions      [1 1 -3 0 0 -1 0];

internalField   nonuniform List<vector> 
8800
(
(-12.9314 -97283.9 -0)
(-32.913 -97329.4 -0)
(-45.7293 -97405.2 -0)
(-56.8812 -97505.5 -0)
(-67.6297 -97628 -0)
(-78.324 -97772.1 -0)
(-88.9163 -97937.5 -0)
(-99.3318 -98123.8 -0)
(-109.506 -98330.5 -0)
(-119.387 -98557.2 -0)
(-128.932 -98803.3 -0)
(-138.108 -99067.9 -0)
(-146.884 -99350.4 -0)
(-155.234 -99650.1 -0)
(-163.134 -99965.9 -0)
(-170.562 -100297 -0)
(-177.494 -100643 -0)
(-183.91 -101001 -0)
(-189.786 -101373 -0)
(-195.096 -101755 -0)
(-199.813 -102147 -0)
(-203.91 -102549 -0)
(-207.353 -102958 -0)
(-210.111 -103373 -0)
(-212.149 -103793 -0)
(-213.435 -104217 -0)
(-213.942 -104642 -0)
(-213.646 -105068 -0)
(-212.537 -105493 -0)
(-210.61 -105914 -0)
(-207.877 -106332 -0)
(-204.353 -106742 -0)
(-200.061 -107146 -0)
(-194.994 -107540 -0)
(-189.102 -107923 -0)
(-182.345 -108294 -0)
(-174.698 -108650 -0)
(-166.152 -108990 -0)
(-156.711 -109312 -0)
(-146.392 -109615 -0)
(-32.6609 -92200.4 -0)
(-88.4797 -92239.6 -0)
(-130.3 -92309.6 -0)
(-165.85 -92405.1 -0)
(-198.994 -92523.7 -0)
(-231.183 -92664.1 -0)
(-262.767 -92825.7 -0)
(-293.728 -93008 -0)
(-323.956 -93210.5 -0)
(-353.33 -93432.6 -0)
(-381.737 -93673.9 -0)
(-409.075 -93933.7 -0)
(-435.256 -94211.2 -0)
(-460.199 -94505.7 -0)
(-483.83 -94816.3 -0)
(-506.078 -95142.3 -0)
(-526.873 -95482.6 -0)
(-546.145 -95836.4 -0)
(-563.821 -96202.5 -0)
(-579.823 -96580 -0)
(-594.069 -96967.8 -0)
(-606.47 -97364.5 -0)
(-616.931 -97769.1 -0)
(-625.352 -98180.1 -0)
(-631.633 -98596.2 -0)
(-635.678 -99016 -0)
(-637.401 -99437.9 -0)
(-636.733 -99860.4 -0)
(-633.631 -100282 -0)
(-628.081 -100701 -0)
(-620.109 -101115 -0)
(-609.812 -101524 -0)
(-597.23 -101925 -0)
(-582.252 -102318 -0)
(-564.742 -102700 -0)
(-544.613 -103070 -0)
(-521.809 -103425 -0)
(-496.308 -103764 -0)
(-468.126 -104086 -0)
(-437.316 -104388 -0)
(-52.1068 -87718.4 -0)
(-142.103 -87757.7 -0)
(-211.302 -87825.8 -0)
(-271.022 -87918.4 -0)
(-326.614 -88033.8 -0)
(-380.304 -88170.7 -0)
(-432.769 -88328.8 -0)
(-484.098 -88507.3 -0)
(-534.184 -88705.9 -0)
(-582.867 -88924 -0)
(-629.979 -89161.1 -0)
(-675.363 -89416.6 -0)
(-718.873 -89689.7 -0)
(-760.373 -89979.9 -0)
(-799.74 -90286.2 -0)
(-836.85 -90607.9 -0)
(-871.586 -90944.1 -0)
(-903.827 -91293.9 -0)
(-933.446 -91656.3 -0)
(-960.312 -92030.2 -0)
(-984.283 -92414.6 -0)
(-1005.21 -92808.3 -0)
(-1022.93 -93210.1 -0)
(-1037.27 -93618.7 -0)
(-1048.06 -94032.8 -0)
(-1055.15 -94450.8 -0)
(-1058.38 -94871.4 -0)
(-1057.62 -95292.8 -0)
(-1052.81 -95713.6 -0)
(-1043.93 -96132 -0)
(-1031.14 -96546.7 -0)
(-1014.59 -96956.2 -0)
(-994.136 -97359 -0)
(-969.528 -97753.1 -0)
(-940.617 -98136.9 -0)
(-907.281 -98508.5 -0)
(-869.445 -98866 -0)
(-827.08 -99207.6 -0)
(-780.219 -99531.4 -0)
(-728.956 -99835.6 -0)
(-72.0025 -83786.3 -0)
(-195.864 -83826.4 -0)
(-290.981 -83894 -0)
(-373.814 -83985.2 -0)
(-451.313 -84098.2 -0)
(-526.204 -84232.5 -0)
(-599.343 -84387.5 -0)
(-670.87 -84562.9 -0)
(-740.671 -84758.1 -0)
(-808.55 -84972.8 -0)
(-874.292 -85206.3 -0)
(-937.688 -85458.3 -0)
(-998.537 -85728 -0)
(-1056.65 -86014.7 -0)
(-1111.86 -86317.8 -0)
(-1163.98 -86636.4 -0)
(-1212.85 -86969.8 -0)
(-1258.29 -87317.1 -0)
(-1300.13 -87677.3 -0)
(-1338.16 -88049.4 -0)
(-1372.19 -88432.4 -0)
(-1402 -88825.1 -0)
(-1427.35 -89226.4 -0)
(-1448.01 -89635 -0)
(-1463.73 -90049.4 -0)
(-1474.26 -90468.4 -0)
(-1479.39 -90890.3 -0)
(-1478.94 -91313.6 -0)
(-1472.85 -91736.7 -0)
(-1461.19 -92158.1 -0)
(-1444.31 -92576.6 -0)
(-1422.1 -92990.6 -0)
(-1394.14 -93398.2 -0)
(-1360.21 -93797.6 -0)
(-1320.11 -94186.8 -0)
(-1273.71 -94564 -0)
(-1220.92 -94927.1 -0)
(-1161.69 -95274.4 -0)
(-1096.1 -95603.7 -0)
(-1024.27 -95913.3 -0)
(-92.1122 -80346.9 -0)
(-249.791 -80387.1 -0)
(-370.109 -80454.6 -0)
(-475.205 -80544.9 -0)
(-573.951 -80656.4 -0)
(-669.602 -80788.7 -0)
(-763.131 -80941.4 -0)
(-854.676 -81114.2 -0)
(-944.087 -81306.8 -0)
(-1031.12 -81518.9 -0)
(-1115.5 -81749.8 -0)
(-1196.97 -81999.2 -0)
(-1275.29 -82266.5 -0)
(-1350.2 -82551.1 -0)
(-1421.47 -82852.3 -0)
(-1488.9 -83169.5 -0)
(-1552.24 -83501.7 -0)
(-1611.27 -83848.3 -0)
(-1665.75 -84208.3 -0)
(-1715.42 -84580.8 -0)
(-1760.01 -84964.8 -0)
(-1799.23 -85359.1 -0)
(-1832.77 -85762.5 -0)
(-1860.3 -86173.9 -0)
(-1881.49 -86591.9 -0)
(-1896.01 -87014.9 -0)
(-1903.59 -87441.6 -0)
(-1904.02 -87870.3 -0)
(-1897.29 -88299.5 -0)
(-1883.83 -88728 -0)
(-1863.65 -89154.5 -0)
(-1836.2 -89577 -0)
(-1801.11 -89993.5 -0)
(-1758.13 -90402 -0)
(-1707.02 -90800.6 -0)
(-1647.63 -91187.2 -0)
(-1579.85 -91559.8 -0)
(-1503.66 -91916.2 -0)
(-1419.13 -92254.6 -0)
(-1326.45 -92572.9 -0)
(-112.239 -77342.2 -0)
(-303.627 -77382.2 -0)
(-448.774 -77449.4 -0)
(-575.624 -77538.9 -0)
(-695.135 -77649.4 -0)
(-811.18 -77780.3 -0)
(-924.86 -77931.3 -0)
(-1036.3 -78102.4 -0)
(-1145.29 -78293.3 -0)
(-1251.51 -78503.6 -0)
(-1354.66 -78733 -0)
(-1454.4 -78981.1 -0)
(-1550.43 -79247.4 -0)
(-1642.46 -79531.4 -0)
(-1730.2 -79832.4 -0)
(-1813.37 -80149.9 -0)
(-1891.7 -80483 -0)
(-1964.89 -80831.2 -0)
(-2032.63 -81193.4 -0)
(-2094.6 -81568.8 -0)
(-2150.44 -81956.5 -0)
(-2199.78 -82355.3 -0)
(-2242.22 -82764.2 -0)
(-2277.35 -83181.7 -0)
(-2304.74 -83606.6 -0)
(-2323.98 -84037.5 -0)
(-2334.74 -84472.7 -0)
(-2336.86 -84910.9 -0)
(-2330.58 -85350.6 -0)
(-2316.21 -85790.8 -0)
(-2293.26 -86229.4 -0)
(-2261.04 -86664.6 -0)
(-2219.16 -87094 -0)
(-2167.32 -87515.8 -0)
(-2105.3 -87927.7 -0)
(-2032.89 -88327.6 -0)
(-1949.98 -88713.4 -0)
(-1856.56 -89082.7 -0)
(-1752.73 -89433.6 -0)
(-1638.72 -89763.8 -0)
(-132.143 -74717.2 -0)
(-356.959 -74756.5 -0)
(-526.801 -74822.9 -0)
(-675.22 -74911.7 -0)
(-815.286 -75021.3 -0)
(-951.552 -75151.3 -0)
(-1085.29 -75301.5 -0)
(-1216.62 -75471.7 -0)
(-1345.27 -75661.7 -0)
(-1470.87 -75871.5 -0)
(-1593.03 -76100.7 -0)
(-1711.38 -76348.9 -0)
(-1825.54 -76615.8 -0)
(-1935.18 -76900.9 -0)
(-2039.95 -77203.6 -0)
(-2139.51 -77523.5 -0)
(-2233.53 -77859.9 -0)
(-2321.63 -78212 -0)
(-2403.44 -78579.2 -0)
(-2478.55 -78960.4 -0)
(-2546.51 -79354.9 -0)
(-2606.87 -79761.5 -0)
(-2659.12 -80179 -0)
(-2702.75 -80606.3 -0)
(-2737.25 -81041.9 -0)
(-2762.12 -81484.5 -0)
(-2777.02 -81932.5 -0)
(-2781.89 -82384.5 -0)
(-2777.18 -82839.2 -0)
(-2762.68 -83295.3 -0)
(-2737.43 -83750.3 -0)
(-2700.8 -84202.2 -0)
(-2652.37 -84648.8 -0)
(-2591.82 -85087.8 -0)
(-2518.85 -85516.9 -0)
(-2433.26 -85933.8 -0)
(-2334.93 -86336.3 -0)
(-2223.86 -86721.9 -0)
(-2100.19 -87088.5 -0)
(-1964.18 -87433.7 -0)
(-151.549 -72420.8 -0)
(-409.306 -72458.9 -0)
(-603.933 -72524.1 -0)
(-774.046 -72612 -0)
(-934.743 -72721 -0)
(-1091.3 -72850.5 -0)
(-1245.21 -73000.4 -0)
(-1396.59 -73170.6 -0)
(-1545.15 -73361 -0)
(-1690.46 -73571.5 -0)
(-1832.06 -73801.8 -0)
(-1969.5 -74051.7 -0)
(-2102.39 -74320.9 -0)
(-2230.3 -74609 -0)
(-2352.85 -74915.6 -0)
(-2469.62 -75240.1 -0)
(-2580.2 -75582.1 -0)
(-2684.17 -75940.9 -0)
(-2781.04 -76315.7 -0)
(-2870.32 -76705.8 -0)
(-2951.47 -77110.2 -0)
(-3023.92 -77527.9 -0)
(-3087.06 -77957.6 -0)
(-3140.27 -78398.3 -0)
(-3182.93 -78848.5 -0)
(-3214.53 -79306.7 -0)
(-3234.71 -79771.6 -0)
(-3243.61 -80241.7 -0)
(-3241.42 -80715.8 -0)
(-3227.32 -81191.7 -0)
(-3200.21 -81667 -0)
(-3159.48 -82139.6 -0)
(-3104.68 -82607 -0)
(-3035.4 -83066.9 -0)
(-2951.34 -83516.7 -0)
(-2852.27 -83954.1 -0)
(-2738.09 -84376.6 -0)
(-2608.79 -84781.7 -0)
(-2464.55 -85167 -0)
(-2305.69 -85530.1 -0)
(-170.211 -70406.5 -0)
(-460.237 -70442.9 -0)
(-679.93 -70506.6 -0)
(-872.142 -70593.6 -0)
(-1053.83 -70702.2 -0)
(-1231 -70831.7 -0)
(-1405.4 -70982.1 -0)
(-1577.21 -71153.2 -0)
(-1746.11 -71344.9 -0)
(-1911.63 -71557.3 -0)
(-2073.25 -71790.2 -0)
(-2230.47 -72043.4 -0)
(-2382.84 -72316.7 -0)
(-2529.87 -72609.7 -0)
(-2671.11 -72922.3 -0)
(-2806.08 -73253.8 -0)
(-2934.3 -73603.9 -0)
(-3055.24 -73971.9 -0)
(-3168.34 -74357.2 -0)
(-3272.99 -74759 -0)
(-3368.55 -75176.4 -0)
(-3454.32 -75608.4 -0)
(-3529.58 -76053.8 -0)
(-3593.6 -76511.4 -0)
(-3645.68 -76979.8 -0)
(-3685.22 -77457.5 -0)
(-3711.93 -77943.2 -0)
(-3726.06 -78435.3 -0)
(-3727.19 -78932.3 -0)
(-3713.95 -79431.7 -0)
(-3685.37 -79931 -0)
(-3640.78 -80427.8 -0)
(-3579.65 -80919.5 -0)
(-3501.53 -81403.6 -0)
(-3406.11 -81877.5 -0)
(-3293.13 -82338.4 -0)
(-3162.5 -82783.9 -0)
(-3014.24 -83211.2 -0)
(-2848.53 -83617.8 -0)
(-2665.79 -84001.2 -0)
(-187.955 -68633.1 -0)
(-509.44 -68667.5 -0)
(-754.633 -68729.6 -0)
(-969.587 -68815.6 -0)
(-1172.87 -68923.9 -0)
(-1371.21 -69054 -0)
(-1566.65 -69205.4 -0)
(-1759.46 -69378.3 -0)
(-1949.32 -69572.5 -0)
(-2135.73 -69788 -0)
(-2318.12 -70024.9 -0)
(-2495.97 -70282.9 -0)
(-2668.73 -70562 -0)
(-2835.89 -70861.9 -0)
(-2996.91 -71182.4 -0)
(-3151.24 -71523 -0)
(-3298.3 -71883.5 -0)
(-3437.49 -72263.2 -0)
(-3568.13 -72661.6 -0)
(-3689.51 -73077.8 -0)
(-3800.84 -73511.1 -0)
(-3901.31 -73960.4 -0)
(-3990.06 -74424.6 -0)
(-4066.24 -74902.3 -0)
(-4129.07 -75392.3 -0)
(-4177.92 -75892.9 -0)
(-4212.49 -76402.8 -0)
(-4232.81 -76920.6 -0)
(-4237.86 -77443.8 -0)
(-4226.01 -77969.9 -0)
(-4196.29 -78496.4 -0)
(-4147.98 -79020.5 -0)
(-4080.49 -79539.6 -0)
(-3993.32 -80050.9 -0)
(-3886.13 -80551.6 -0)
(-3758.68 -81038.9 -0)
(-3610.87 -81510 -0)
(-3442.76 -81962.1 -0)
(-3254.56 -82392.4 -0)
(-3046.74 -82798.3 -0)
(-204.682 -67064.2 -0)
(-556.747 -67096.6 -0)
(-827.983 -67156.9 -0)
(-1066.51 -67242 -0)
(-1292.21 -67350.4 -0)
(-1512.49 -67481.3 -0)
(-1729.71 -67634.5 -0)
(-1944.27 -67809.9 -0)
(-2155.88 -68007.6 -0)
(-2364.03 -68227.4 -0)
(-2568.12 -68469.5 -0)
(-2767.58 -68733.8 -0)
(-2961.81 -69020.3 -0)
(-3150.24 -69328.7 -0)
(-3332.25 -69659 -0)
(-3507.23 -70010.7 -0)
(-3674.49 -70383.6 -0)
(-3833.33 -70777.3 -0)
(-3982.95 -71191 -0)
(-4122.51 -71624.1 -0)
(-4251.1 -72075.8 -0)
(-4367.76 -72545 -0)
(-4471.49 -73030.7 -0)
(-4561.3 -73531.4 -0)
(-4636.3 -74045.9 -0)
(-4695.79 -74572.5 -0)
(-4739.56 -75109.7 -0)
(-4767.01 -75655.8 -0)
(-4776.53 -76208.1 -0)
(-4766.54 -76763.8 -0)
(-4735.98 -77320.3 -0)
(-4684.04 -77874.6 -0)
(-4610.07 -78423.9 -0)
(-4513.55 -78965.2 -0)
(-4394.08 -79495.4 -0)
(-4251.47 -80011.5 -0)
(-4085.64 -80510.6 -0)
(-3896.66 -80989.7 -0)
(-3684.81 -81445.9 -0)
(-3450.57 -81876.4 -0)
(-220.367 -65668.4 -0)
(-602.12 -65698.8 -0)
(-900.012 -65757.3 -0)
(-1163.08 -65841.6 -0)
(-1412.18 -65950.3 -0)
(-1655.35 -66082.5 -0)
(-1895.27 -66238 -0)
(-2132.5 -66416.7 -0)
(-2366.81 -66618.6 -0)
(-2597.68 -66843.8 -0)
(-2824.53 -67092.2 -0)
(-3046.71 -67364 -0)
(-3263.61 -67659.2 -0)
(-3474.57 -67977.6 -0)
(-3678.91 -68319.2 -0)
(-3875.93 -68683.7 -0)
(-4064.85 -69070.9 -0)
(-4244.84 -69480.2 -0)
(-4414.99 -69911.3 -0)
(-4574.31 -70363.3 -0)
(-4721.75 -70835.5 -0)
(-4856.19 -71327 -0)
(-4976.47 -71836.4 -0)
(-5081.47 -72362.6 -0)
(-5170.14 -72904.1 -0)
(-5241.7 -73459.2 -0)
(-5295.78 -74026.2 -0)
(-5331.2 -74603.1 -0)
(-5345.88 -75186.9 -0)
(-5338.23 -75774.9 -0)
(-5307.11 -76363.9 -0)
(-5251.62 -76951.1 -0)
(-5171.02 -77533.1 -0)
(-5064.75 -78106.8 -0)
(-4932.44 -78668.9 -0)
(-4773.9 -79216.3 -0)
(-4589.08 -79745.7 -0)
(-4378.12 -80254.1 -0)
(-4141.32 -80738.4 -0)
(-3879.22 -81195.5 -0)
(-235.045 -64418.3 -0)
(-645.629 -64446.7 -0)
(-970.827 -64503.6 -0)
(-1259.49 -64587.3 -0)
(-1533.11 -64696.5 -0)
(-1800.25 -64830.4 -0)
(-2063.91 -64988.7 -0)
(-2324.86 -65171.2 -0)
(-2582.93 -65378.1 -0)
(-2837.65 -65609.3 -0)
(-3088.4 -65865.1 -0)
(-3334.55 -66145.4 -0)
(-3575.39 -66450.4 -0)
(-3810.24 -66780 -0)
(-4038.34 -67134.1 -0)
(-4258.88 -67512.7 -0)
(-4471 -67915.5 -0)
(-4673.73 -68342.1 -0)
(-4866.04 -68792 -0)
(-5046.79 -69264.6 -0)
(-5214.76 -69759.1 -0)
(-5368.66 -70274.5 -0)
(-5507.16 -70809.7 -0)
(-5628.96 -71363.3 -0)
(-5732.86 -71933.8 -0)
(-5817.94 -72519.5 -0)
(-5883.47 -73118.5 -0)
(-5927.71 -73728.3 -0)
(-5948.28 -74346 -0)
(-5943.53 -74968.4 -0)
(-5912.17 -75592.5 -0)
(-5853.19 -76214.8 -0)
(-5765.79 -76832 -0)
(-5649.38 -77440.7 -0)
(-5503.6 -78037.2 -0)
(-5328.3 -78618.3 -0)
(-5123.47 -79180.5 -0)
(-4889.31 -79720.4 -0)
(-4626.16 -80234.9 -0)
(-4334.64 -80720.7 -0)
(-248.793 -63290.3 -0)
(-687.423 -63317 -0)
(-1040.58 -63372.4 -0)
(-1355.95 -63455.6 -0)
(-1655.27 -63565.5 -0)
(-1947.54 -63701.4 -0)
(-2236.11 -63862.8 -0)
(-2521.92 -64049.7 -0)
(-2804.92 -64262.1 -0)
(-3084.68 -64500 -0)
(-3360.59 -64763.7 -0)
(-3631.99 -65053.3 -0)
(-3898.15 -65368.9 -0)
(-4158.32 -65710.5 -0)
(-4411.66 -66078.1 -0)
(-4657.28 -66471.8 -0)
(-4894.19 -66891.2 -0)
(-5121.33 -67336.1 -0)
(-5337.5 -67806.1 -0)
(-5541.42 -68300.5 -0)
(-5731.68 -68818.6 -0)
(-5906.81 -69359.4 -0)
(-6065.28 -69921.8 -0)
(-6205.58 -70504.4 -0)
(-6326.31 -71105.6 -0)
(-6426.42 -71723.6 -0)
(-6504.64 -72356.5 -0)
(-6558.64 -73001.2 -0)
(-6585.94 -73654.7 -0)
(-6584.72 -74313.9 -0)
(-6553.52 -74975.2 -0)
(-6491.19 -75635.2 -0)
(-6396.86 -76290.2 -0)
(-6269.93 -76936.3 -0)
(-6110.06 -77569.9 -0)
(-5917.14 -78187.2 -0)
(-5691.23 -78784.8 -0)
(-5432.57 -79358.8 -0)
(-5141.59 -79906 -0)
(-4818.95 -80422.9 -0)
(-261.714 -62264.2 -0)
(-727.696 -62289.3 -0)
(-1109.45 -62343.4 -0)
(-1452.63 -62426.4 -0)
(-1778.89 -62537.2 -0)
(-2097.53 -62675.2 -0)
(-2412.21 -62840 -0)
(-2724.1 -63031.5 -0)
(-3033.25 -63249.7 -0)
(-3339.31 -63494.8 -0)
(-3641.67 -63766.9 -0)
(-3939.68 -64066.2 -0)
(-4232.57 -64392.8 -0)
(-4519.52 -64747 -0)
(-4799.64 -65128.8 -0)
(-5071.94 -65538.1 -0)
(-5335.32 -65974.9 -0)
(-5588.59 -66438.8 -0)
(-5830.4 -66929.6 -0)
(-6059.29 -67446.7 -0)
(-6273.69 -67989.3 -0)
(-6471.9 -68556.6 -0)
(-6652.19 -69147.4 -0)
(-6812.81 -69760.3 -0)
(-6952.09 -70393.6 -0)
(-7068.79 -71045.5 -0)
(-7161.02 -71713.7 -0)
(-7225.94 -72395.1 -0)
(-7260.96 -73086.6 -0)
(-7264.05 -73784.6 -0)
(-7233.54 -74485.7 -0)
(-7168.13 -75185.9 -0)
(-7066.84 -75881.2 -0)
(-6929.08 -76567.6 -0)
(-6754.55 -77241.1 -0)
(-6543.18 -77897.8 -0)
(-6295.08 -78533.5 -0)
(-6010.57 -79144.7 -0)
(-5690.17 -79727.4 -0)
(-5334.57 -80278 -0)
(-273.924 -61322.3 -0)
(-766.671 -61346.2 -0)
(-1177.62 -61399.2 -0)
(-1549.7 -61482 -0)
(-1904.11 -61593.8 -0)
(-2250.37 -61734.1 -0)
(-2592.42 -61902.5 -0)
(-2931.62 -62098.7 -0)
(-3268.19 -62322.9 -0)
(-3601.83 -62575.3 -0)
(-3931.98 -62856 -0)
(-4257.97 -63165.2 -0)
(-4579.02 -63503.2 -0)
(-4894.27 -63870.3 -0)
(-5202.73 -64266.4 -0)
(-5503.35 -64691.7 -0)
(-5794.91 -65146.1 -0)
(-6076.08 -65629.5 -0)
(-6345.36 -66141.6 -0)
(-6601.13 -66681.9 -0)
(-6841.6 -67249.7 -0)
(-7064.87 -67844.1 -0)
(-7268.95 -68464.1 -0)
(-7451.82 -69108.3 -0)
(-7611.55 -69774.9 -0)
(-7746.51 -70462 -0)
(-7854.24 -71167.1 -0)
(-7931.48 -71887 -0)
(-7975.44 -72618.4 -0)
(-7983.82 -73357.6 -0)
(-7954.76 -74100.9 -0)
(-7886.73 -74844.1 -0)
(-7778.64 -75582.8 -0)
(-7629.87 -76312.7 -0)
(-7440.18 -77029.5 -0)
(-7209.54 -77728.7 -0)
(-6938.16 -78406.2 -0)
(-6626.42 -79057.8 -0)
(-6274.91 -79679.5 -0)
(-5884.39 -80267.1 -0)
(-285.59 -60449.5 -0)
(-804.617 -60472.4 -0)
(-1245.27 -60524.6 -0)
(-1647.26 -60607.4 -0)
(-2031.03 -60720.3 -0)
(-2406.15 -60862.9 -0)
(-2776.8 -61034.8 -0)
(-3144.57 -61235.8 -0)
(-3509.82 -61466 -0)
(-3872.33 -61725.6 -0)
(-4231.6 -62014.8 -0)
(-4586.96 -62334 -0)
(-4937.62 -62683.4 -0)
(-5282.67 -63063.2 -0)
(-5621.08 -63473.7 -0)
(-5951.68 -63915 -0)
(-6273.17 -64387.1 -0)
(-6584.06 -64890.1 -0)
(-6882.73 -65423.6 -0)
(-7167.35 -65987.2 -0)
(-7435.94 -66580.5 -0)
(-7686.36 -67202.6 -0)
(-7916.34 -67852.4 -0)
(-8123.54 -68528.6 -0)
(-8305.82 -69229.5 -0)
(-8460.99 -69953.1 -0)
(-8585.98 -70696.6 -0)
(-8677.22 -71456.8 -0)
(-8731.63 -72230.3 -0)
(-8746.59 -73013.2 -0)
(-8719.98 -73801.6 -0)
(-8650.03 -74590.8 -0)
(-8535.52 -75376.3 -0)
(-8375.77 -76153.3 -0)
(-8170.55 -76917.1 -0)
(-7919.92 -77663 -0)
(-7624.18 -78386.3 -0)
(-7283.8 -79082.4 -0)
(-6899.41 -79747 -0)
(-6471.84 -80375.5 -0)
(-296.853 -59632.8 -0)
(-841.808 -59655 -0)
(-1312.57 -59706.7 -0)
(-1745.38 -59789.5 -0)
(-2159.62 -59903.5 -0)
(-2564.81 -60048.3 -0)
(-2965.29 -60223.6 -0)
(-3362.85 -60429.2 -0)
(-3758.01 -60665.2 -0)
(-4150.67 -60931.8 -0)
(-4540.38 -61229.4 -0)
(-4926.5 -61558.2 -0)
(-5308.22 -61918.6 -0)
(-5684.59 -62311 -0)
(-6054.53 -62735.6 -0)
(-6416.8 -63192.6 -0)
(-6770 -63682.2 -0)
(-7112.51 -64204.5 -0)
(-7442.54 -64759.3 -0)
(-7758.1 -65346.4 -0)
(-8056.97 -65965.2 -0)
(-8336.78 -66615.2 -0)
(-8594.97 -67295.3 -0)
(-8828.87 -68004.2 -0)
(-9036.01 -68740.3 -0)
(-9213.59 -69501.5 -0)
(-9357.91 -70284.9 -0)
(-9465.18 -71087.3 -0)
(-9531.91 -71905.2 -0)
(-9555.12 -72734.6 -0)
(-9532.3 -73571 -0)
(-9461.45 -74409.8 -0)
(-9341.18 -75245.9 -0)
(-9170.72 -76074.2 -0)
(-8949.85 -76889.5 -0)
(-8678.68 -77686.7 -0)
(-8357.59 -78460.6 -0)
(-7987.13 -79206.2 -0)
(-7568 -79918.6 -0)
(-7101.07 -80592.7 -0)
(-307.844 -58860.9 -0)
(-878.488 -58882.7 -0)
(-1379.71 -58933.9 -0)
(-1844.1 -59016.9 -0)
(-2289.83 -59132 -0)
(-2726.19 -59278.8 -0)
(-3157.66 -59457.2 -0)
(-3586.2 -59667.1 -0)
(-4012.49 -59908.6 -0)
(-4436.55 -60181.9 -0)
(-4857.99 -60487.4 -0)
(-5276.21 -60825.4 -0)
(-5690.4 -61196.4 -0)
(-6099.61 -61600.8 -0)
(-6502.69 -62038.9 -0)
(-6898.34 -62511.2 -0)
(-7285.07 -63017.8 -0)
(-7661.13 -63559 -0)
(-8024.6 -64134.7 -0)
(-8373.28 -64744.9 -0)
(-8704.76 -65389.2 -0)
(-9016.39 -66067.1 -0)
(-9305.32 -66777.7 -0)
(-9568.55 -67519.8 -0)
(-9803.14 -68292 -0)
(-10005.6 -69091.9 -0)
(-10171.8 -69916.8 -0)
(-10297.5 -70763.4 -0)
(-10378.9 -71628.2 -0)
(-10412.4 -72506.9 -0)
(-10395.2 -73394.9 -0)
(-10324.9 -74287.2 -0)
(-10199.9 -75178.3 -0)
(-10019.4 -76062.8 -0)
(-9783.06 -76935 -0)
(-9491.01 -77789 -0)
(-9143.71 -78619.4 -0)
(-8741.75 -79420.3 -0)
(-8285.88 -80186.3 -0)
(-7777.04 -80911.6 -0)
(-318.677 -58124 -0)
(-914.866 -58145.6 -0)
(-1446.8 -58196.6 -0)
(-1943.42 -58279.8 -0)
(-2421.52 -58395.8 -0)
(-2890.08 -58544.5 -0)
(-3353.61 -58725.7 -0)
(-3814.24 -58939.5 -0)
(-4272.81 -59186 -0)
(-4729.45 -59465.4 -0)
(-5183.87 -59778.2 -0)
(-5635.5 -60124.7 -0)
(-6083.57 -60505.6 -0)
(-6527.1 -60921.2 -0)
(-6964.92 -61372.2 -0)
(-7395.69 -61858.9 -0)
(-7817.8 -62381.9 -0)
(-8229.42 -62941.3 -0)
(-8628.48 -63537.4 -0)
(-9012.6 -64170.2 -0)
(-9379.15 -64839.6 -0)
(-9725.24 -65545.2 -0)
(-10047.7 -66286.4 -0)
(-10343.2 -67062.2 -0)
(-10608.1 -67871.1 -0)
(-10838.4 -68710.9 -0)
(-11029.4 -69578.8 -0)
(-11176.6 -70471.8 -0)
(-11275.4 -71386.2 -0)
(-11321.9 -72317.5 -0)
(-11312.6 -73261 -0)
(-11244.9 -74211.3 -0)
(-11116.8 -75162.7 -0)
(-10927.3 -76109 -0)
(-10676.1 -77044.2 -0)
(-10363.1 -77961.8 -0)
(-9988.89 -78855.5 -0)
(-9554.03 -79718.8 -0)
(-9059.3 -80545.3 -0)
(-8505.73 -81328.7 -0)
(-329.445 -57413.7 -0)
(-951.115 -57435.3 -0)
(-1513.93 -57486.2 -0)
(-2043.28 -57569.6 -0)
(-2554.5 -57686.4 -0)
(-3056.13 -57836.6 -0)
(-3552.7 -58020.3 -0)
(-4046.46 -58237.4 -0)
(-4538.38 -58488.3 -0)
(-5028.73 -58773.1 -0)
(-5517.31 -59092.4 -0)
(-6003.62 -59446.7 -0)
(-6486.92 -59836.5 -0)
(-6966.23 -60262.6 -0)
(-7440.4 -60725.4 -0)
(-7908 -61225.7 -0)
(-8367.38 -61763.9 -0)
(-8816.63 -62340.7 -0)
(-9253.52 -62956.3 -0)
(-9675.53 -63611.1 -0)
(-10079.8 -64305 -0)
(-10463.2 -65038.1 -0)
(-10822.2 -65809.8 -0)
(-11153.2 -66619.4 -0)
(-11451.8 -67465.6 -0)
(-11713.4 -68346.3 -0)
(-11932.8 -69259 -0)
(-12104.8 -70200.6 -0)
(-12224.5 -71167.4 -0)
(-12287.3 -72155 -0)
(-12289 -73158.4 -0)
(-12226.5 -74171.9 -0)
(-12097.7 -75189.4 -0)
(-11900.9 -76204.3 -0)
(-11635.8 -77209.8 -0)
(-11302.3 -78198.9 -0)
(-10900.7 -79164.2 -0)
(-10431.6 -80098.3 -0)
(-9895.75 -80993.8 -0)
(-9294.23 -81843.2 -0)
(-340.226 -56722.8 -0)
(-987.365 -56744.4 -0)
(-1581.15 -56795.4 -0)
(-2143.58 -56879 -0)
(-2688.51 -56996.3 -0)
(-3223.97 -57147.7 -0)
(-3754.43 -57333.3 -0)
(-4282.23 -57553.2 -0)
(-4808.49 -57807.7 -0)
(-5333.59 -58097.2 -0)
(-5857.45 -58422.1 -0)
(-6379.63 -58783.1 -0)
(-6899.45 -59180.9 -0)
(-7415.98 -59616.2 -0)
(-7928.05 -60089.8 -0)
(-8434.22 -60602.4 -0)
(-8932.8 -61154.9 -0)
(-9421.78 -61747.8 -0)
(-9898.86 -62381.9 -0)
(-10361.3 -63057.6 -0)
(-10806.2 -63775.4 -0)
(-11230 -64535.3 -0)
(-11629 -65337.2 -0)
(-11999 -66180.7 -0)
(-12335 -67064.6 -0)
(-12631.8 -67987.2 -0)
(-12883.7 -68946.2 -0)
(-13085 -69938.7 -0)
(-13229.8 -70961.1 -0)
(-13312.9 -72009 -0)
(-13329.5 -73077.2 -0)
(-13275.9 -74159.8 -0)
(-13149.2 -75250.3 -0)
(-12947.8 -76341.6 -0)
(-12670.6 -77426.1 -0)
(-12317.4 -78495.9 -0)
(-11888.3 -79542.7 -0)
(-11383.7 -80557.9 -0)
(-10804.2 -81532.4 -0)
(-10151.1 -82457.6 -0)
(-351.072 -56045 -0)
(-1023.7 -56066.8 -0)
(-1648.47 -56117.8 -0)
(-2244.19 -56201.5 -0)
(-2823.25 -56319.1 -0)
(-3393.15 -56471.4 -0)
(-3958.21 -56658.3 -0)
(-4520.84 -56880.3 -0)
(-5082.31 -57137.6 -0)
(-5643.1 -57430.7 -0)
(-6203.25 -57760.2 -0)
(-6762.43 -58126.8 -0)
(-7320.01 -58531.3 -0)
(-7875.13 -58974.6 -0)
(-8426.62 -59457.6 -0)
(-8973.08 -59981.3 -0)
(-9512.77 -60546.5 -0)
(-10043.7 -61154.3 -0)
(-10563.3 -61805.5 -0)
(-11069 -62501 -0)
(-11557.5 -63241.4 -0)
(-12025 -64027.3 -0)
(-12467.7 -64858.9 -0)
(-12880.6 -65736.1 -0)
(-13258.3 -66658 -0)
(-13595 -67623.3 -0)
(-13884.3 -68630.2 -0)
(-14119.7 -69676 -0)
(-14294.8 -70757.2 -0)
(-14403.3 -71869.7 -0)
(-14439.8 -73008.1 -0)
(-14399.6 -74166.4 -0)
(-14279.4 -75337.8 -0)
(-14076.8 -76514.6 -0)
(-13790.2 -77688.4 -0)
(-13418.9 -78850.3 -0)
(-12962.6 -79990.5 -0)
(-12421.3 -81098.8 -0)
(-11795.5 -82164.7 -0)
(-11086.4 -83177.3 -0)
(-362.021 -55374.8 -0)
(-1060.18 -55396.8 -0)
(-1715.84 -55447.9 -0)
(-2344.92 -55531.6 -0)
(-2958.39 -55649.3 -0)
(-3563.14 -55801.8 -0)
(-4163.36 -55989.5 -0)
(-4761.5 -56212.8 -0)
(-5358.9 -56472 -0)
(-5956.21 -56767.7 -0)
(-6553.57 -57100.7 -0)
(-7150.77 -57471.6 -0)
(-7747.27 -57881.5 -0)
(-8342.27 -58331.3 -0)
(-8934.67 -58822.2 -0)
(-9523.09 -59355.2 -0)
(-10105.8 -59931.7 -0)
(-10680.8 -60552.7 -0)
(-11245.6 -61219.5 -0)
(-11797.3 -61933.2 -0)
(-12332.5 -62695 -0)
(-12847.5 -63505.7 -0)
(-13337.7 -64366.1 -0)
(-13798 -65276.3 -0)
(-14222.2 -66236.1 -0)
(-14604 -67244.8 -0)
(-14936.4 -68300.9 -0)
(-15212 -69402.2 -0)
(-15423.5 -70545.7 -0)
(-15563.7 -71727.3 -0)
(-15626.3 -72941.9 -0)
(-15605.6 -74183.4 -0)
(-15497.4 -75444.7 -0)
(-15298.4 -76717.6 -0)
(-15006.3 -77992.8 -0)
(-14619.5 -79260.2 -0)
(-14136.9 -80508.3 -0)
(-13557.9 -81724.8 -0)
(-12882.6 -82896.8 -0)
(-12112.6 -84011.1 -0)
(-373.089 -54707.7 -0)
(-1096.8 -54730 -0)
(-1783.18 -54781.1 -0)
(-2445.56 -54864.5 -0)
(-3093.53 -54981.9 -0)
(-3733.4 -55134.3 -0)
(-4369.18 -55322.1 -0)
(-5003.31 -55545.8 -0)
(-5637.25 -55806 -0)
(-6271.77 -56103.2 -0)
(-6907.14 -56438.3 -0)
(-7543.26 -56812.2 -0)
(-8179.72 -57225.9 -0)
(-8815.81 -57680.6 -0)
(-9450.53 -58177.6 -0)
(-10082.5 -58718.3 -0)
(-10710.2 -59304 -0)
(-11331.5 -59936.4 -0)
(-11943.9 -60616.9 -0)
(-12544.5 -61347 -0)
(-13130 -62128.4 -0)
(-13696.1 -62962.4 -0)
(-14238.3 -63850.2 -0)
(-14750.6 -64792.6 -0)
(-15226.8 -65789.9 -0)
(-15659.7 -66842 -0)
(-16041.7 -67948.3 -0)
(-16364.5 -69107.2 -0)
(-16619.9 -70316.2 -0)
(-16799.6 -71571.7 -0)
(-16896 -72868.9 -0)
(-16902.5 -74201.9 -0)
(-16813.6 -75563.4 -0)
(-16624.9 -76944.8 -0)
(-16332.8 -78336 -0)
(-15934.4 -79725.1 -0)
(-15427.2 -81098.7 -0)
(-14809.8 -82441.8 -0)
(-14081.8 -83738.3 -0)
(-13244.6 -84971.8 -0)
(-384.274 -54039.6 -0)
(-1133.53 -54062.1 -0)
(-1850.36 -54113.2 -0)
(-2545.82 -54196.2 -0)
(-3228.23 -54313 -0)
(-3903.32 -54464.7 -0)
(-4574.87 -54651.8 -0)
(-5245.34 -54875.1 -0)
(-5916.26 -55135.1 -0)
(-6588.53 -55432.6 -0)
(-7262.55 -55768.5 -0)
(-7938.38 -56143.8 -0)
(-8615.73 -56559.7 -0)
(-9294.01 -57017.6 -0)
(-9972.34 -57518.8 -0)
(-10649.5 -58065.1 -0)
(-11323.9 -58658.1 -0)
(-11993.6 -59299.6 -0)
(-12656.2 -59991.5 -0)
(-13308.8 -60735.9 -0)
(-13947.9 -61534.7 -0)
(-14569.3 -62390 -0)
(-15167.9 -63303.4 -0)
(-15737.6 -64276.3 -0)
(-16271.7 -65310 -0)
(-16762.5 -66405.3 -0)
(-17201.6 -67562.4 -0)
(-17579.9 -68780.4 -0)
(-17888 -70057.9 -0)
(-18116.5 -71392 -0)
(-18256.5 -72778.5 -0)
(-18300.1 -74212.1 -0)
(-18240.3 -75685.6 -0)
(-18070.9 -77189.9 -0)
(-17786.5 -78714.2 -0)
(-17382.2 -80244.8 -0)
(-16853.6 -81765.6 -0)
(-16197.5 -83258.2 -0)
(-15412.7 -84702.2 -0)
(-14500.8 -86076.7 -0)
(-395.561 -53367.3 -0)
(-1170.31 -53390 -0)
(-1917.23 -53440.8 -0)
(-2645.41 -53523.2 -0)
(-3362.03 -53639 -0)
(-4072.24 -53789.4 -0)
(-4779.61 -53975.2 -0)
(-5486.58 -54197.1 -0)
(-6194.75 -54455.8 -0)
(-6905.15 -54752.3 -0)
(-7618.33 -55087.5 -0)
(-8334.49 -55462.6 -0)
(-9053.5 -55878.9 -0)
(-9774.93 -56338 -0)
(-10498 -56841.4 -0)
(-11221.8 -57391 -0)
(-11944.7 -57988.8 -0)
(-12664.9 -58637 -0)
(-13380.2 -59337.8 -0)
(-14087.8 -60093.8 -0)
(-14784.1 -60907.5 -0)
(-15464.8 -61781.4 -0)
(-16124.6 -62717.8 -0)
(-16757.3 -63719.1 -0)
(-17355.8 -64787.5 -0)
(-17912.1 -65924.9 -0)
(-18416.8 -67132.3 -0)
(-18860.1 -68410.5 -0)
(-19231.4 -69758.9 -0)
(-19520.2 -71176 -0)
(-19716.1 -72658.8 -0)
(-19809.5 -74202.6 -0)
(-19791.4 -75801 -0)
(-19653.5 -77445.1 -0)
(-19387.7 -79123 -0)
(-18985.8 -80819.2 -0)
(-18440.7 -82514.3 -0)
(-17746.4 -84185.1 -0)
(-16900.3 -85805.6 -0)
(-15904.1 -87348.8 -0)
(-406.92 -52687.9 -0)
(-1207.03 -52710.6 -0)
(-1983.59 -52761.2 -0)
(-2744 -52842.6 -0)
(-3494.42 -52957 -0)
(-4239.48 -53105.5 -0)
(-4982.53 -53289.1 -0)
(-5725.98 -53508.6 -0)
(-6471.49 -53764.9 -0)
(-7220.22 -54059.1 -0)
(-7972.88 -54392.1 -0)
(-8729.82 -54765.3 -0)
(-9491.1 -55180.1 -0)
(-10256.5 -55638.2 -0)
(-11025.4 -56141.5 -0)
(-11796.9 -56692.1 -0)
(-12569.9 -57292.1 -0)
(-13342.7 -57944.1 -0)
(-14113.1 -58650.9 -0)
(-14878.5 -59415.5 -0)
(-15635.5 -60240.7 -0)
(-16379.6 -61129.8 -0)
(-17105.6 -62086.1 -0)
(-17807.3 -63112.8 -0)
(-18477.4 -64213.1 -0)
(-19107.3 -65390.3 -0)
(-19687.2 -66646.9 -0)
(-20206.5 -67985.1 -0)
(-20653.4 -69406 -0)
(-21016.3 -70909.8 -0)
(-21283.1 -72495.2 -0)
(-21442.4 -74159.5 -0)
(-21482.8 -75897.2 -0)
(-21392.9 -77700.3 -0)
(-21160.6 -79556.2 -0)
(-20773.5 -81447.6 -0)
(-20219.5 -83350.8 -0)
(-19488.8 -85236.6 -0)
(-18576.3 -87071 -0)
(-17483.7 -88818.1 -0)
(-418.309 -51999.1 -0)
(-1243.57 -52021.8 -0)
(-2049.21 -52071.8 -0)
(-2841.23 -52152.1 -0)
(-3624.89 -52264.5 -0)
(-4404.34 -52410.5 -0)
(-5182.74 -52591.1 -0)
(-5962.45 -52807.3 -0)
(-6745.2 -53060 -0)
(-7532.27 -53350.4 -0)
(-8324.53 -53679.6 -0)
(-9122.51 -54049 -0)
(-9926.47 -54460.4 -0)
(-10736.4 -54915.4 -0)
(-11551.9 -55416.2 -0)
(-12372.3 -55964.9 -0)
(-13196.8 -56564.3 -0)
(-14023.8 -57217.1 -0)
(-14851.5 -57926.5 -0)
(-15677.5 -58695.9 -0)
(-16498.5 -59528.9 -0)
(-17310.1 -60429.2 -0)
(-18107.5 -61401.1 -0)
(-18884.4 -62449.1 -0)
(-19633.4 -63577.5 -0)
(-20345.9 -64791 -0)
(-21011.6 -66094 -0)
(-21619.1 -67490.5 -0)
(-22156.1 -68983.9 -0)
(-22609.5 -70576.9 -0)
(-22965.8 -72270.8 -0)
(-23211.5 -74065.4 -0)
(-23332.2 -75957.9 -0)
(-23312.5 -77941.6 -0)
(-23135 -80004.6 -0)
(-22780.4 -82127.3 -0)
(-22229.7 -84281.4 -0)
(-21466.6 -86429.6 -0)
(-20481.9 -88526.8 -0)
(-19277.1 -90524.5 -0)
(-429.675 -51298.9 -0)
(-1279.78 -51321.6 -0)
(-2113.83 -51370.8 -0)
(-2936.69 -51449.5 -0)
(-3752.87 -51559.6 -0)
(-4566.09 -51702.4 -0)
(-5379.32 -51879.2 -0)
(-6194.88 -52091 -0)
(-7014.57 -52338.9 -0)
(-7839.79 -52624.1 -0)
(-8671.57 -52947.9 -0)
(-9510.64 -53311.8 -0)
(-10357.5 -53717.6 -0)
(-11212.2 -54167.2 -0)
(-12074.9 -54662.8 -0)
(-12945.1 -55206.9 -0)
(-13822.1 -55802.5 -0)
(-14704.9 -56452.6 -0)
(-15591.9 -57160.8 -0)
(-16480.8 -57930.9 -0)
(-17368.8 -58766.9 -0)
(-18251.9 -59673.6 -0)
(-19125.5 -60656.1 -0)
(-19983.7 -61720 -0)
(-20819.4 -62871.2 -0)
(-21623.8 -64115.9 -0)
(-22386.7 -65460.6 -0)
(-23096.4 -66911.7 -0)
(-23739.9 -68475.6 -0)
(-24303.2 -70158.2 -0)
(-24771.7 -71964.6 -0)
(-25129.4 -73898.6 -0)
(-25359 -75961.4 -0)
(-25439.5 -78149.8 -0)
(-25346.3 -80453.4 -0)
(-25050.4 -82851.8 -0)
(-24521.9 -85311.3 -0)
(-23734.2 -87783.9 -0)
(-22671.2 -90209.2 -0)
(-21333.8 -92520.4 -0)
(-440.958 -50586 -0)
(-1315.49 -50608.4 -0)
(-2177.17 -50656.7 -0)
(-3029.98 -50733.5 -0)
(-3877.8 -50840.7 -0)
(-4723.99 -50979.7 -0)
(-5571.34 -51151.9 -0)
(-6422.14 -51358.3 -0)
(-7278.27 -51600.2 -0)
(-8141.23 -51878.7 -0)
(-9012.23 -52195.4 -0)
(-9892.19 -52551.9 -0)
(-10781.8 -52950 -0)
(-11681.6 -53391.7 -0)
(-12591.7 -53879.5 -0)
(-13512 -54416.1 -0)
(-14442.4 -55004.4 -0)
(-15382.1 -55648.1 -0)
(-16329.8 -56350.7 -0)
(-17283.6 -57116.6 -0)
(-18241.2 -57950.5 -0)
(-19199.3 -58857.8 -0)
(-20153.8 -59844.6 -0)
(-21099.4 -60917.8 -0)
(-22029.3 -62084.7 -0)
(-22935.3 -63353.5 -0)
(-23807.4 -64732.9 -0)
(-24634.2 -66232.4 -0)
(-25402.6 -67861.8 -0)
(-26098.5 -69631.3 -0)
(-26706.2 -71551.2 -0)
(-27208.2 -73631.2 -0)
(-27583.3 -75878.9 -0)
(-27804.5 -78297.1 -0)
(-27837 -80880 -0)
(-27638.3 -83607.9 -0)
(-27161.8 -86442 -0)
(-26364.5 -89321.4 -0)
(-25218.3 -92164 -0)
(-23719.4 -94874.4 -0)
(-452.089 -49859.1 -0)
(-1350.5 -49881.1 -0)
(-2238.94 -49928.2 -0)
(-3120.69 -50002.8 -0)
(-3999.12 -50106.6 -0)
(-4877.3 -50241.2 -0)
(-5757.89 -50408 -0)
(-6643.14 -50608 -0)
(-7534.99 -50842.6 -0)
(-8435.07 -51113.1 -0)
(-9344.75 -51421.1 -0)
(-10265.2 -51768.3 -0)
(-11197.3 -52156.5 -0)
(-12141.8 -52588 -0)
(-13099.2 -53065.2 -0)
(-14070 -53591 -0)
(-15054.1 -54168.6 -0)
(-16051.2 -54801.5 -0)
(-17060.4 -55493.8 -0)
(-18080.6 -56250.1 -0)
(-19109.9 -57075.8 -0)
(-20146 -57977.1 -0)
(-21185.5 -58960.9 -0)
(-22223.8 -60035.1 -0)
(-23255.1 -61208.9 -0)
(-24272 -62492.3 -0)
(-25265.6 -63896.7 -0)
(-26225.2 -65434.8 -0)
(-27138.7 -67120.6 -0)
(-27992.7 -68970 -0)
(-28771.6 -70999.9 -0)
(-29457.2 -73228.2 -0)
(-30024.9 -75672.1 -0)
(-30440.6 -78344.5 -0)
(-30657 -81248.5 -0)
(-30612.4 -84369.7 -0)
(-30235.4 -87666.5 -0)
(-29456.2 -91062.9 -0)
(-28224.2 -94447.4 -0)
(-26523.6 -97676.5 -0)
(-462.997 -49117.5 -0)
(-1384.63 -49139 -0)
(-2298.82 -49184.7 -0)
(-3208.37 -49256.6 -0)
(-4116.26 -49356.6 -0)
(-5025.31 -49486.1 -0)
(-5938.07 -49646.6 -0)
(-6856.78 -49839.3 -0)
(-7783.44 -50065.5 -0)
(-8719.79 -50326.7 -0)
(-9667.38 -50624.4 -0)
(-10627.6 -50960.4 -0)
(-11601.5 -51336.6 -0)