/*--------------------------------*- C++ -*----------------------------------*\
  =========                 |
  \\      /  F ield         | OpenFOAM: The Open Source CFD Toolbox
   \\    /   O peration     | Website:  https://openfoam.org
    \\  /    A nd           | Version:  6
     \\/     M anipulation  |
\*---------------------------------------------------------------------------*/
FoamFile
{
    version     2.0;
    format      ascii;
    class       volScalarField;
    location    "30";
    object      p;
}
// * * * * * * * * * * * * * * * * * * * * * * * * * * * * * * * * * * * * * //

dimensions      [0 2 -2 0 0 0 0];

internalField   nonuniform List<scalar> 
8800
(
1.04096e-10
3.82138e-07
6.35663e-07
7.61059e-07
8.38017e-07
9.00045e-07
9.58908e-07
1.0196e-06
1.08451e-06
1.15484e-06
1.23131e-06
1.31444e-06
1.40476e-06
1.50283e-06
1.60929e-06
1.72484e-06
1.85028e-06
1.98642e-06
2.13412e-06
2.29424e-06
2.46759e-06
2.65491e-06
2.85683e-06
3.07383e-06
3.30622e-06
3.55412e-06
3.81743e-06
4.09588e-06
4.38902e-06
4.69622e-06
5.01676e-06
5.34995e-06
5.69421e-06
6.04661e-06
6.40433e-06
6.7644e-06
7.12344e-06
7.47779e-06
7.82354e-06
8.15664e-06
-1.6339e-05
-1.65548e-05
-1.66518e-05
-1.66781e-05
-1.66899e-05
-1.66997e-05
-1.67091e-05
-1.67186e-05
-1.67277e-05
-1.67359e-05
-1.67426e-05
-1.67472e-05
-1.67488e-05
-1.67467e-05
-1.674e-05
-1.67275e-05
-1.67082e-05
-1.66808e-05
-1.66442e-05
-1.6597e-05
-1.6538e-05
-1.64659e-05
-1.63798e-05
-1.62786e-05
-1.61615e-05
-1.60278e-05
-1.5877e-05
-1.5709e-05
-1.55235e-05
-1.53205e-05
-1.51005e-05
-1.48649e-05
-1.46148e-05
-1.43517e-05
-1.40775e-05
-1.37949e-05
-1.35069e-05
-1.32168e-05
-1.29278e-05
-1.26437e-05
-2.87186e-05
-2.88557e-05
-2.89287e-05
-2.89678e-05
-2.90026e-05
-2.90376e-05
-2.90739e-05
-2.91123e-05
-2.9153e-05
-2.9196e-05
-2.92406e-05
-2.9286e-05
-2.93316e-05
-2.93762e-05
-2.94187e-05
-2.94579e-05
-2.94925e-05
-2.95211e-05
-2.95423e-05
-2.95546e-05
-2.95567e-05
-2.95471e-05
-2.95247e-05
-2.94881e-05
-2.94365e-05
-2.9369e-05
-2.9285e-05
-2.91841e-05
-2.9066e-05
-2.89307e-05
-2.87786e-05
-2.86106e-05
-2.84278e-05
-2.82316e-05
-2.80241e-05
-2.78078e-05
-2.75854e-05
-2.736e-05
-2.71348e-05
-2.6913e-05
-3.81442e-05
-3.82014e-05
-3.8238e-05
-3.8276e-05
-3.83234e-05
-3.83781e-05
-3.8439e-05
-3.85062e-05
-3.85793e-05
-3.86578e-05
-3.87411e-05
-3.88282e-05
-3.89181e-05
-3.90097e-05
-3.91017e-05
-3.91925e-05
-3.92808e-05
-3.93649e-05
-3.94431e-05
-3.95138e-05
-3.95754e-05
-3.96263e-05
-3.96648e-05
-3.96896e-05
-3.96995e-05
-3.96933e-05
-3.96703e-05
-3.96297e-05
-3.95711e-05
-3.94937e-05
-3.9397e-05
-3.92815e-05
-3.91485e-05
-3.90001e-05
-3.88385e-05
-3.86664e-05
-3.84864e-05
-3.83015e-05
-3.81148e-05
-3.79294e-05
-4.60175e-05
-4.60835e-05
-4.61328e-05
-4.61858e-05
-4.62513e-05
-4.63282e-05
-4.64156e-05
-4.65129e-05
-4.66195e-05
-4.67345e-05
-4.6857e-05
-4.69859e-05
-4.712e-05
-4.72579e-05
-4.73979e-05
-4.75385e-05
-4.76779e-05
-4.78142e-05
-4.79456e-05
-4.80701e-05
-4.81857e-05
-4.82907e-05
-4.83832e-05
-4.84615e-05
-4.85243e-05
-4.85701e-05
-4.8598e-05
-4.86071e-05
-4.85961e-05
-4.85634e-05
-4.85079e-05
-4.84306e-05
-4.83335e-05
-4.8219e-05
-4.80896e-05
-4.79477e-05
-4.77963e-05
-4.76383e-05
-4.74766e-05
-4.73143e-05
-5.2635e-05
-5.27179e-05
-5.27814e-05
-5.2847e-05
-5.29268e-05
-5.3021e-05
-5.31289e-05
-5.325e-05
-5.33832e-05
-5.35276e-05
-5.3682e-05
-5.38449e-05
-5.40149e-05
-5.41903e-05
-5.43694e-05
-5.45501e-05
-5.47306e-05
-5.49086e-05
-5.50821e-05
-5.52488e-05
-5.54066e-05
-5.55534e-05
-5.56872e-05
-5.58061e-05
-5.59085e-05
-5.5993e-05
-5.60583e-05
-5.61033e-05
-5.61256e-05
-5.61226e-05
-5.60947e-05
-5.60437e-05
-5.59717e-05
-5.58809e-05
-5.5774e-05
-5.56538e-05
-5.55232e-05
-5.5385e-05
-5.52422e-05
-5.50977e-05
-5.81721e-05
-5.82604e-05
-5.83305e-05
-5.84046e-05
-5.84953e-05
-5.86032e-05
-5.87277e-05
-5.8868e-05
-5.90231e-05
-5.91916e-05
-5.93721e-05
-5.9563e-05
-5.97626e-05
-5.99688e-05
-6.01796e-05
-6.0393e-05
-6.06065e-05
-6.08178e-05
-6.10246e-05
-6.12243e-05
-6.14148e-05
-6.15935e-05
-6.17585e-05
-6.19076e-05
-6.20391e-05
-6.21514e-05
-6.22432e-05
-6.23125e-05
-6.23554e-05
-6.23703e-05
-6.23592e-05
-6.23241e-05
-6.22668e-05
-6.21901e-05
-6.20966e-05
-6.19894e-05
-6.18713e-05
-6.17455e-05
-6.16147e-05
-6.14816e-05
-6.28205e-05
-6.29088e-05
-6.29825e-05
-6.30633e-05
-6.31631e-05
-6.32823e-05
-6.34205e-05
-6.35766e-05
-6.37496e-05
-6.39378e-05
-6.41397e-05
-6.43532e-05
-6.45764e-05
-6.48072e-05
-6.50431e-05
-6.52818e-05
-6.55207e-05
-6.57573e-05
-6.5989e-05
-6.62131e-05
-6.64272e-05
-6.66287e-05
-6.68154e-05
-6.69851e-05
-6.71358e-05
-6.72661e-05
-6.73742e-05
-6.74566e-05
-6.75092e-05
-6.75328e-05
-6.75297e-05
-6.75015e-05
-6.74507e-05
-6.73799e-05
-6.72922e-05
-6.71907e-05
-6.70786e-05
-6.69588e-05
-6.68341e-05
-6.67072e-05
-6.67416e-05
-6.68271e-05
-6.6903e-05
-6.69889e-05
-6.70957e-05
-6.72238e-05
-6.73725e-05
-6.75409e-05
-6.77276e-05
-6.79308e-05
-6.81488e-05
-6.83793e-05
-6.86201e-05
-6.88688e-05
-6.91228e-05
-6.93795e-05
-6.96362e-05
-6.98902e-05
-7.01385e-05
-7.03785e-05
-7.06076e-05
-7.08231e-05
-7.10227e-05
-7.12041e-05
-7.13653e-05
-7.15047e-05
-7.162e-05
-7.1706e-05
-7.17603e-05
-7.17855e-05
-7.17833e-05
-7.17555e-05
-7.17046e-05
-7.16337e-05
-7.1546e-05
-7.1445e-05
-7.13339e-05
-7.12156e-05
-7.1093e-05
-7.09685e-05
-7.00613e-05
-7.01417e-05
-7.02179e-05
-7.03072e-05
-7.04189e-05
-7.05532e-05
-7.07094e-05
-7.08864e-05
-7.10828e-05
-7.12965e-05
-7.15255e-05
-7.17675e-05
-7.202e-05
-7.22804e-05
-7.2546e-05
-7.28139e-05
-7.30813e-05
-7.33452e-05
-7.36028e-05
-7.38513e-05
-7.40879e-05
-7.43099e-05
-7.45149e-05
-7.47006e-05
-7.4865e-05
-7.50063e-05
-7.51212e-05
-7.52042e-05
-7.52549e-05
-7.52763e-05
-7.52699e-05
-7.52375e-05
-7.5182e-05
-7.51066e-05
-7.50149e-05
-7.49106e-05
-7.47969e-05
-7.46771e-05
-7.45537e-05
-7.4429e-05
-7.28796e-05
-7.29526e-05
-7.30276e-05
-7.31185e-05
-7.3233e-05
-7.33711e-05
-7.35319e-05
-7.37142e-05
-7.39164e-05
-7.41363e-05
-7.43717e-05
-7.46202e-05
-7.48791e-05
-7.51456e-05
-7.54168e-05
-7.56899e-05
-7.59618e-05
-7.62295e-05
-7.64901e-05
-7.67407e-05
-7.69786e-05
-7.7201e-05
-7.74055e-05
-7.75898e-05
-7.7752e-05
-7.78898e-05
-7.79983e-05
-7.80735e-05
-7.81174e-05
-7.81316e-05
-7.81175e-05
-7.80774e-05
-7.80142e-05
-7.79316e-05
-7.78332e-05
-7.77231e-05
-7.76047e-05
-7.74812e-05
-7.73552e-05
-7.72287e-05
-7.5276e-05
-7.53402e-05
-7.54125e-05
-7.55034e-05
-7.56188e-05
-7.57584e-05
-7.59212e-05
-7.61057e-05
-7.63103e-05
-7.65326e-05
-7.67703e-05
-7.70208e-05
-7.72813e-05
-7.7549e-05
-7.78209e-05
-7.8094e-05
-7.83652e-05
-7.86315e-05
-7.889e-05
-7.91378e-05
-7.9372e-05
-7.95901e-05
-7.97896e-05
-7.99681e-05
-8.01237e-05
-8.02541e-05
-8.0353e-05
-8.04183e-05
-8.0453e-05
-8.04578e-05
-8.04342e-05
-8.03846e-05
-8.03123e-05
-8.02209e-05
-8.01145e-05
-7.99973e-05
-7.9873e-05
-7.97447e-05
-7.96149e-05
-7.94856e-05
-7.73145e-05
-7.73687e-05
-7.7437e-05
-7.75265e-05
-7.76411e-05
-7.77801e-05
-7.79425e-05
-7.81266e-05
-7.83305e-05
-7.85519e-05
-7.87883e-05
-7.90371e-05
-7.92953e-05
-7.95602e-05
-7.98285e-05
-8.00974e-05
-8.03638e-05
-8.06247e-05
-8.08771e-05
-8.11181e-05
-8.13451e-05
-8.15555e-05
-8.17466e-05
-8.19165e-05
-8.2063e-05
-8.21829e-05
-8.22705e-05
-8.23251e-05
-8.23495e-05
-8.23441e-05
-8.23103e-05
-8.22509e-05
-8.2169e-05
-8.20686e-05
-8.19539e-05
-8.18293e-05
-8.16988e-05
-8.15653e-05
-8.14312e-05
-8.12985e-05
-7.90466e-05
-7.90899e-05
-7.91532e-05
-7.924e-05
-7.93522e-05
-7.94889e-05
-7.96488e-05
-7.98302e-05
-8.00309e-05
-8.02486e-05
-8.04807e-05
-8.07246e-05
-8.09774e-05
-8.12361e-05
-8.14977e-05
-8.17592e-05
-8.20175e-05
-8.22699e-05
-8.25132e-05
-8.27448e-05
-8.29621e-05
-8.31624e-05
-8.33434e-05
-8.35029e-05
-8.3639e-05
-8.37465e-05
-8.38217e-05
-8.38657e-05
-8.388e-05
-8.38645e-05
-8.38211e-05
-8.37524e-05
-8.3662e-05
-8.35533e-05
-8.34309e-05
-8.32996e-05
-8.31632e-05
-8.30247e-05
-8.28862e-05
-8.27496e-05
-8.05142e-05
-8.05462e-05
-8.06034e-05
-8.06864e-05
-8.07949e-05
-8.09278e-05
-8.10835e-05
-8.12602e-05
-8.14556e-05
-8.16673e-05
-8.18929e-05
-8.21295e-05
-8.23743e-05
-8.26243e-05
-8.28767e-05
-8.31283e-05
-8.33764e-05
-8.3618e-05
-8.38504e-05
-8.40708e-05
-8.42767e-05
-8.44656e-05
-8.46352e-05
-8.47835e-05
-8.49081e-05
-8.5003e-05
-8.5066e-05
-8.51002e-05
-8.51052e-05
-8.50809e-05
-8.50291e-05
-8.49529e-05
-8.48559e-05
-8.47413e-05
-8.46128e-05
-8.44752e-05
-8.43332e-05
-8.41897e-05
-8.40469e-05
-8.39066e-05
-8.17518e-05
-8.1773e-05
-8.1823e-05
-8.19008e-05
-8.20046e-05
-8.21324e-05
-8.22825e-05
-8.2453e-05
-8.26414e-05
-8.28455e-05
-8.30626e-05
-8.329e-05
-8.35249e-05
-8.37645e-05
-8.40059e-05
-8.42461e-05
-8.44823e-05
-8.47118e-05
-8.49319e-05
-8.51401e-05
-8.53338e-05
-8.55107e-05
-8.56685e-05
-8.58054e-05
-8.59178e-05
-8.60006e-05
-8.6053e-05
-8.60784e-05
-8.60762e-05
-8.60461e-05
-8.59887e-05
-8.5907e-05
-8.58045e-05
-8.5685e-05
-8.5552e-05
-8.54098e-05
-8.5263e-05
-8.5115e-05
-8.49682e-05
-8.48241e-05
-8.27879e-05
-8.27992e-05
-8.28419e-05
-8.29135e-05
-8.3011e-05
-8.31325e-05
-8.3276e-05
-8.3439e-05
-8.36192e-05
-8.38143e-05
-8.40216e-05
-8.42385e-05
-8.44623e-05
-8.46902e-05
-8.49194e-05
-8.51471e-05
-8.53705e-05
-8.55871e-05
-8.57944e-05
-8.59898e-05
-8.61711e-05
-8.63359e-05
-8.64824e-05
-8.66087e-05
-8.67099e-05
-8.67818e-05
-8.68259e-05
-8.68442e-05
-8.68363e-05
-8.6802e-05
-8.67412e-05
-8.66562e-05
-8.65503e-05
-8.64273e-05
-8.62912e-05
-8.61462e-05
-8.59966e-05
-8.58456e-05
-8.56956e-05
-8.55481e-05
-8.36472e-05
-8.36491e-05
-8.36848e-05
-8.37496e-05
-8.384e-05
-8.39541e-05
-8.40896e-05
-8.42441e-05
-8.44151e-05
-8.46002e-05
-8.47968e-05
-8.50024e-05
-8.52142e-05
-8.54297e-05
-8.56462e-05
-8.5861e-05
-8.60715e-05
-8.62752e-05
-8.64697e-05
-8.66527e-05
-8.68219e-05
-8.69753e-05
-8.71111e-05
-8.72273e-05
-8.73181e-05
-8.73805e-05
-8.74183e-05
-8.74315e-05
-8.74194e-05
-8.73818e-05
-8.73192e-05
-8.72333e-05
-8.71269e-05
-8.70036e-05
-8.68672e-05
-8.67219e-05
-8.65714e-05
-8.64189e-05
-8.62666e-05
-8.61159e-05
-8.43514e-05
-8.43445e-05
-8.43729e-05
-8.44308e-05
-8.45135e-05
-8.46194e-05
-8.47462e-05
-8.48913e-05
-8.50523e-05
-8.52268e-05
-8.54122e-05
-8.56059e-05
-8.58054e-05
-8.60082e-05
-8.62117e-05
-8.64136e-05
-8.66112e-05
-8.68022e-05
-8.69843e-05
-8.71553e-05
-8.73131e-05
-8.74557e-05
-8.75813e-05
-8.76874e-05
-8.77684e-05
-8.78234e-05
-8.78562e-05
-8.78661e-05
-8.78521e-05
-8.7814e-05
-8.77522e-05
-8.76684e-05
-8.75647e-05
-8.74443e-05
-8.73107e-05
-8.71675e-05
-8.70181e-05
-8.68655e-05
-8.67115e-05
-8.65577e-05
-8.49189e-05
-8.4904e-05
-8.49252e-05
-8.49758e-05
-8.50507e-05
-8.51479e-05
-8.52654e-05
-8.54007e-05
-8.55512e-05
-8.57145e-05
-8.58881e-05
-8.60697e-05
-8.62567e-05
-8.64467e-05
-8.66373e-05
-8.68262e-05
-8.7011e-05
-8.71894e-05
-8.73594e-05
-8.75188e-05
-8.76657e-05
-8.77984e-05
-8.79151e-05
-8.8011e-05
-8.80833e-05
-8.81336e-05
-8.81635e-05
-8.81721e-05
-8.81587e-05
-8.81228e-05
-8.80649e-05
-8.79862e-05
-8.78885e-05
-8.77742e-05
-8.76463e-05
-8.75078e-05
-8.73616e-05
-8.721e-05
-8.7055e-05
-8.68977e-05
-8.53662e-05
-8.53442e-05
-8.53584e-05
-8.54016e-05
-8.54681e-05
-8.55564e-05
-8.56642e-05
-8.57892e-05
-8.59288e-05
-8.60806e-05
-8.62423e-05
-8.64116e-05
-8.65859e-05
-8.67632e-05
-8.6941e-05
-8.71171e-05
-8.72893e-05
-8.74556e-05
-8.76139e-05
-8.77623e-05
-8.7899e-05
-8.80224e-05
-8.81304e-05
-8.8218e-05
-8.8284e-05
-8.83314e-05
-8.83603e-05
-8.83698e-05
-8.83592e-05
-8.83284e-05
-8.82774e-05
-8.82069e-05
-8.81184e-05
-8.80134e-05
-8.78942e-05
-8.77629e-05
-8.76216e-05
-8.74722e-05
-8.73161e-05
-8.71546e-05
-8.57076e-05
-8.56796e-05
-8.5687e-05
-8.57227e-05
-8.57807e-05
-8.58596e-05
-8.59574e-05
-8.60718e-05
-8.62002e-05
-8.63404e-05
-8.649e-05
-8.66469e-05
-8.68087e-05
-8.69732e-05
-8.71384e-05
-8.7302e-05
-8.74622e-05
-8.76168e-05
-8.77641e-05
-8.79022e-05
-8.80295e-05
-8.81445e-05
-8.82439e-05
-8.83246e-05
-8.8387e-05
-8.84333e-05
-8.8463e-05
-8.84755e-05
-8.84703e-05
-8.84471e-05
-8.84058e-05
-8.83468e-05
-8.82707e-05
-8.81783e-05
-8.80706e-05
-8.79488e-05
-8.78138e-05
-8.76668e-05
-8.7509e-05
-8.73416e-05
-8.59561e-05
-8.59229e-05
-8.5924e-05
-8.59522e-05
-8.60016e-05
-8.6071e-05
-8.61585e-05
-8.6262e-05
-8.6379e-05
-8.65073e-05
-8.66448e-05
-8.67893e-05
-8.69386e-05
-8.70906e-05
-8.72435e-05
-8.73951e-05
-8.75436e-05
-8.76872e-05
-8.7824e-05
-8.79526e-05
-8.80713e-05
-8.81786e-05
-8.82704e-05
-8.83455e-05
-8.84063e-05
-8.84531e-05
-8.84854e-05
-8.85029e-05
-8.85053e-05
-8.84922e-05
-8.84635e-05
-8.8419e-05
-8.83585e-05
-8.82816e-05
-8.8188e-05
-8.80773e-05
-8.79493e-05
-8.78042e-05
-8.76426e-05
-8.74661e-05
-8.61231e-05
-8.60858e-05
-8.60811e-05
-8.61019e-05
-8.61427e-05
-8.62024e-05
-8.62795e-05
-8.63718e-05
-8.64772e-05
-8.65935e-05
-8.67188e-05
-8.68509e-05
-8.69878e-05
-8.71277e-05
-8.72686e-05
-8.74086e-05
-8.75459e-05
-8.7679e-05
-8.78061e-05
-8.79257e-05
-8.80365e-05
-8.8136e-05
-8.82218e-05
-8.82938e-05
-8.83541e-05
-8.84026e-05
-8.8439e-05
-8.84632e-05
-8.84751e-05
-8.84745e-05
-8.8461e-05
-8.84338e-05
-8.83917e-05
-8.83329e-05
-8.82553e-05
-8.81566e-05
-8.80349e-05
-8.78893e-05
-8.77201e-05
-8.7529e-05
-8.62189e-05
-8.61785e-05
-8.61684e-05
-8.61823e-05
-8.62146e-05
-8.62646e-05
-8.6331e-05
-8.6412e-05
-8.65057e-05
-8.661e-05
-8.67229e-05
-8.68427e-05
-8.69675e-05
-8.70953e-05
-8.72245e-05
-8.73533e-05
-8.74801e-05
-8.76032e-05
-8.77211e-05
-8.78325e-05
-8.79359e-05
-8.80282e-05
-8.81089e-05
-8.81794e-05
-8.82403e-05
-8.82916e-05
-8.83332e-05
-8.83655e-05
-8.83886e-05
-8.84024e-05
-8.84063e-05
-8.83988e-05
-8.83775e-05
-8.83386e-05
-8.82779e-05
-8.81906e-05
-8.80727e-05
-8.79219e-05
-8.77379e-05
-8.75231e-05
-8.62527e-05
-8.62101e-05
-8.61954e-05
-8.62027e-05
-8.62267e-05
-8.62671e-05
-8.63229e-05
-8.63926e-05
-8.64743e-05
-8.65664e-05
-8.66671e-05
-8.67746e-05
-8.68873e-05
-8.70033e-05
-8.71212e-05
-8.72391e-05
-8.73557e-05
-8.74693e-05
-8.75786e-05
-8.76822e-05
-8.77779e-05
-8.78646e-05
-8.7942e-05
-8.80116e-05
-8.80736e-05
-8.81282e-05
-8.81759e-05
-8.82172e-05
-8.82527e-05
-8.82824e-05
-8.83054e-05
-8.83194e-05
-8.83203e-05
-8.83021e-05
-8.82575e-05
-8.81788e-05
-8.80593e-05
-8.78947e-05
-8.76845e-05
-8.74321e-05
-8.62329e-05
-8.61891e-05
-8.61704e-05
-8.61715e-05
-8.61876e-05
-8.62186e-05
-8.62638e-05
-8.63221e-05
-8.63919e-05
-8.64718e-05
-8.65601e-05
-8.66554e-05
-8.67561e-05
-8.68605e-05
-8.69673e-05
-8.70747e-05
-8.71815e-05
-8.7286e-05
-8.7387e-05
-8.74829e-05
-8.7572e-05
-8.76537e-05
-8.77289e-05
-8.7798e-05
-8.78613e-05
-8.79194e-05
-8.79733e-05
-8.80241e-05
-8.80725e-05
-8.81189e-05
-8.81619e-05
-8.81982e-05
-8.82217e-05
-8.82232e-05
-8.81917e-05
-8.81155e-05
-8.79846e-05
-8.77926e-05
-8.75385e-05
-8.72274e-05
-8.61669e-05
-8.61226e-05
-8.61006e-05
-8.60962e-05
-8.61048e-05
-8.61267e-05
-8.61616e-05
-8.62085e-05
-8.62664e-05
-8.6334e-05
-8.641e-05
-8.6493e-05
-8.65818e-05
-8.66748e-05
-8.67707e-05
-8.68679e-05
-8.69651e-05
-8.7061e-05
-8.7154e-05
-8.72423e-05
-8.73258e-05
-8.74037e-05
-8.74768e-05
-8.75452e-05
-8.76096e-05
-8.76709e-05
-8.77307e-05
-8.77906e-05
-8.78518e-05
-8.79147e-05
-8.79776e-05
-8.80357e-05
-8.80803e-05
-8.80981e-05
-8.80733e-05
-8.7989e-05
-8.78309e-05
-8.75904e-05
-8.72662e-05
-8.68659e-05
-8.60615e-05
-8.60175e-05
-8.59929e-05
-8.59834e-05
-8.59851e-05
-8.59983e-05
-8.6023e-05
-8.60588e-05
-8.61048e-05
-8.61601e-05
-8.62237e-05
-8.62946e-05
-8.63715e-05
-8.64532e-05
-8.65384e-05
-8.66256e-05
-8.67136e-05
-8.68008e-05
-8.68858e-05
-8.69681e-05
-8.70465e-05
-8.7121e-05
-8.71917e-05
-8.7259e-05
-8.73237e-05
-8.73875e-05
-8.74521e-05
-8.75199e-05
-8.75927e-05
-8.76709e-05
-8.77522e-05
-8.78298e-05
-8.78915e-05
-8.79189e-05
-8.78895e-05
-8.778e-05
-8.75709e-05
-8.72503e-05
-8.6818e-05
-8.62851e-05
-8.59226e-05
-8.58795e-05
-8.5853e-05
-8.58392e-05
-8.58344e-05
-8.58393e-05
-8.58543e-05
-8.58791e-05
-8.59133e-05
-8.59564e-05
-8.60077e-05
-8.60664e-05
-8.61316e-05
-8.62021e-05
-8.62767e-05
-8.63541e-05
-8.64329e-05
-8.65116e-05
-8.65899e-05
-8.66666e-05
-8.67405e-05
-8.68113e-05
-8.6879e-05
-8.69443e-05
-8.70082e-05
-8.70728e-05
-8.71406e-05
-8.72144e-05
-8.72964e-05
-8.73872e-05
-8.74834e-05
-8.75758e-05
-8.76472e-05
-8.76727e-05
-8.76213e-05
-8.74609e-05
-8.71651e-05
-8.67185e-05
-8.61222e-05
-8.53917e-05
-8.57556e-05
-8.5714e-05
-8.56862e-05
-8.56686e-05
-8.5658e-05
-8.56552e-05
-8.56607e-05
-8.56748e-05
-8.56974e-05
-8.57284e-05
-8.57674e-05
-8.5814e-05
-8.58675e-05
-8.59268e-05
-8.5991e-05
-8.60587e-05
-8.61285e-05
-8.62001e-05
-8.62726e-05
-8.63439e-05
-8.6413e-05
-8.64795e-05
-8.65435e-05
-8.66055e-05
-8.6667e-05
-8.67303e-05
-8.67986e-05
-8.68752e-05
-8.69628e-05
-8.70617e-05
-8.71671e-05
-8.72663e-05
-8.73361e-05
-8.73422e-05
-8.72427e-05
-8.69945e-05
-8.65618e-05
-8.59247e-05
-8.5089e-05
-8.40714e-05
-8.55652e-05
-8.55257e-05
-8.54971e-05
-8.54764e-05
-8.54605e-05
-8.54504e-05
-8.54469e-05
-8.54505e-05
-8.54617e-05
-8.54807e-05
-8.55076e-05
-8.55421e-05
-8.5584e-05
-8.56323e-05
-8.56861e-05
-8.57442e-05
-8.58065e-05
-8.58724e-05
-8.59391e-05
-8.60049e-05
-8.60689e-05
-8.61303e-05
-8.61893e-05
-8.62464e-05
-8.63033e-05
-8.63626e-05
-8.64279e-05
-8.65031e-05
-8.65911e-05
-8.66916e-05
-8.67978e-05
-8.6892e-05
-8.69431e-05
-8.69048e-05
-8.67206e-05
-8.63323e-05
-8.5693e-05
-8.478e-05
-8.3592e-05
-8.21808e-05
-8.53559e-05
-8.53189e-05
-8.529e-05
-8.52666e-05
-8.52459e-05
-8.5229e-05
-8.52168e-05
-8.52103e-05
-8.52103e-05
-8.52174e-05
-8.52322e-05
-8.52548e-05
-8.52851e-05
-8.53224e-05
-8.5366e-05
-8.54164e-05
-8.54731e-05
-8.5533e-05
-8.55938e-05
-8.5654e-05
-8.57123e-05
-8.57678e-05
-8.58204e-05
-8.58707e-05
-8.59204e-05
-8.59723e-05
-8.60304e-05
-8.60988e-05
-8.61803e-05
-8.62737e-05
-8.63689e-05
-8.6442e-05
-8.6451e-05
-8.63342e-05
-8.60152e-05
-8.54146e-05
-8.44693e-05
-8.31586e-05
-8.14789e-05
-7.95199e-05
-8.51314e-05
-8.50972e-05
-8.50685e-05
-8.50428e-05
-8.50178e-05
-8.49944e-05
-8.49739e-05
-8.49576e-05
-8.49465e-05
-8.4942e-05
-8.49448e-05
-8.49555e-05
-8.49741e-05
-8.50007e-05
-8.50367e-05
-8.50816e-05
-8.51323e-05
-8.51861e-05
-8.5241e-05
-8.52953e-05
-8.53473e-05
-8.5396e-05
-8.54407e-05
-8.54819e-05
-8.55214e-05
-8.5562e-05
-8.56079e-05
-8.5663e-05
-8.57298e-05
-8.5805e-05
-8.58742e-05
-8.59052e-05
-8.58419e-05
-8.56024e-05
-8.50838e-05
-8.41796e-05
-8.28139e-05
-8.09274e-05
-7.85632e-05
-7.5843e-05
-8.48954e-05
-8.48643e-05
-8.48359e-05
-8.48083e-05
-8.47792e-05
-8.47497e-05
-8.47212e-05
-8.46952e-05
-8.46734e-05
-8.46572e-05
-8.4648e-05
-8.46466e-05
-8.46545e-05
-8.46739e-05
-8.47045e-05
-8.47433e-05
-8.47877e-05
-8.48355e-05
-8.48847e-05
-8.49329e-05
-8.49782e-05
-8.50188e-05
-8.50541e-05
-8.5084e-05
-8.51101e-05
-8.51353e-05
-8.51633e-05
-8.5198e-05
-8.52404e-05
-8.52844e-05
-8.53096e-05
-8.52729e-05
-8.51003e-05
-8.46829e-05
-8.38827e-05
-8.25588e-05
-8.06063e-05
-7.7951e-05
-7.46354e-05
-7.08789e-05
-8.46512e-05
-8.46233e-05
-8.45955e-05
-8.4566e-05
-8.4533e-05
-8.44976e-05
-8.44613e-05
-8.44258e-05
-8.43933e-05
-8.43655e-05
-8.43445e-05
-8.43331e-05
-8.4334e-05
-8.43479e-05
-8.43721e-05
-8.44044e-05
-8.4443e-05
-8.44855e-05
-8.45291e-05
-8.45713e-05
-8.46093e-05
-8.4641e-05
-8.46651e-05
-8.46815e-05
-8.46911e-05
-8.46965e-05
-8.4701e-05
-8.47076e-05
-8.47152e-05
-8.47138e-05
-8.46751e-05
-8.4542e-05
-8.42179e-05
-8.35592e-05
-8.23806e-05
-8.05113e-05
-7.77639e-05
-7.40856e-05
-6.9522e-05
-6.44141e-05
-8.44021e-05
-8.43773e-05
-8.435e-05
-8.43187e-05
-8.42819e-05
-8.42407e-05
-8.41966e-05
-8.41518e-05
-8.41085e-05
-8.40696e-05
-8.40397e-05
-8.40218e-05
-8.40171e-05
-8.40241e-05
-8.40418e-05
-8.40686e-05
-8.41024e-05
-8.41402e-05
-8.41789e-05
-8.42151e-05
-8.42455e-05
-8.42675e-05
-8.42792e-05
-8.42799e-05
-8.42701e-05
-8.42518e-05
-8.42274e-05
-8.41986e-05
-8.41615e-05
-8.41005e-05
-8.39777e-05
-8.3719e-05
-8.32003e-05
-8.2238e-05
-8.05922e-05
-7.80036e-05
-7.42857e-05
-6.93249e-05
-6.32255e-05
-5.61581e-05
-8.41511e-05
-8.41292e-05
-8.41022e-05
-8.4069e-05
-8.40284e-05
-8.39813e-05
-8.39294e-05
-8.38752e-05
-8.38221e-05
-8.37756e-05
-8.37395e-05
-8.37155e-05
-8.37039e-05
-8.37047e-05
-8.37174e-05
-8.37403e-05
-8.37705e-05
-8.38048e-05
-8.38392e-05
-8.38697e-05
-8.38925e-05
-8.39043e-05
-8.39026e-05
-8.38859e-05
-8.38543e-05
-8.3809e-05
-8.37514e-05
-8.3681e-05
-8.35907e-05
-8.34584e-05
-8.32344e-05
-8.28248e-05
-8.20724e-05
-8.07448e-05
-7.85491e-05
-7.50852e-05
-7.03131e-05
-6.3917e-05
-5.6069e-05
-4.62438e-05
-8.39014e-05
-8.38818e-05
-8.38549e-05
-8.38195e-05
-8.37749e-05
-8.37219e-05
-8.36624e-05
-8.36001e-05
-8.35404e-05
-8.34881e-05
-8.34454e-05
-8.34146e-05
-8.33973e-05
-8.33939e-05
-8.34036e-05
-8.34242e-05
-8.34525e-05
-8.34845e-05
-8.35157e-05
-8.35413e-05
-8.35568e-05
-8.35582e-05
-8.35424e-05
-8.35074e-05
-8.34525e-05
-8.33779e-05
-8.3284e-05
-8.31682e-05
-8.30194e-05
-8.28085e-05
-8.24735e-05
-8.19002e-05
-8.09004e-05
-7.91951e-05
-7.63943e-05
-7.20321e-05
-6.61291e-05
-5.86301e-05
-4.93525e-05
-3.58232e-05
-8.36556e-05
-8.36378e-05
-8.36105e-05
-8.35727e-05
-8.35239e-05
-8.34649e-05
-8.33991e-05
-8.33312e-05
-8.3266e-05
-8.3207e-05
-8.3158e-05
-8.31222e-05
-8.31015e-05
-8.30962e-05
-8.31052e-05
-8.31257e-05
-8.31541e-05
-8.31855e-05
-8.32148e-05
-8.32365e-05
-8.32454e-05
-8.32368e-05
-8.3207e-05
-8.31533e-05
-8.30744e-05
-8.29698e-05
-8.28386e-05
-8.26762e-05
-8.24676e-05
-8.21772e-05
-8.17316e-05
-8.09977e-05
-7.97605e-05
-7.77122e-05
-7.43699e-05
-6.92649e-05
-6.24385e-05
-5.42204e-05
-4.3457e-05
-2.23098e-05
8.47299e-06
8.76848e-06
9.0391e-06
9.28102e-06
9.49071e-06
9.66503e-06
9.80142e-06
9.89792e-06
9.95337e-06
9.97089e-06
9.97089e-06
9.95337e-06
9.89793e-06
9.80142e-06
9.66503e-06
9.49071e-06
9.28102e-06
9.0391e-06
8.76848e-06
8.473e-06
-1.23682e-05
-1.2105e-05
-1.18579e-05
-1.16303e-05
-1.14259e-05
-1.12476e-05
-1.10984e-05
-1.09808e-05
-1.08971e-05
-1.08511e-05
-1.08511e-05
-1.08971e-05
-1.09808e-05
-1.10984e-05
-1.12476e-05
-1.14259e-05
-1.16303e-05
-1.18579e-05
-1.2105e-05
-1.23682e-05
-2.6698e-05
-2.64932e-05
-2.63018e-05
-2.61272e-05
-2.59724e-05
-2.58402e-05
-2.57331e-05
-2.56531e-05
-2.56026e-05
-2.55828e-05
-2.55828e-05
-2.56026e-05
-2.56531e-05
-2.57331e-05
-2.58402e-05
-2.59724e-05
-2.61272e-05
-2.63018e-05
-2.64932e-05
-2.6698e-05
-3.77486e-05
-3.75755e-05
-3.74133e-05
-3.72651e-05
-3.7134e-05
-3.70225e-05
-3.69331e-05
-3.68679e-05
-3.68295e-05
-3.68187e-05
-3.68187e-05
-3.68295e-05
-3.68679e-05
-3.69331e-05
-3.70225e-05
-3.7134e-05
-3.72651e-05
-3.74133e-05
-3.75755e-05
-3.77486e-05
-4.71544e-05
-4.7e-05
-4.6854e-05
-4.67195e-05
-4.65992e-05
-4.6496e-05
-4.64122e-05
-4.63499e-05
-4.63118e-05
-4.62998e-05
-4.62998e-05
-4.63118e-05
-4.63499e-05
-4.64122e-05
-4.6496e-05
-4.65992e-05
-4.67194e-05
-4.6854e-05
-4.7e-05
-4.71544e-05
-5.49544e-05
-5.48151e-05
-5.46825e-05
-5.45597e-05
-5.44493e-05
-5.4354e-05
-5.42762e-05
-5.4218e-05
-5.41821e-05
-5.41702e-05
-5.41702e-05
-5.41821e-05
-5.4218e-05
-5.42762e-05
-5.4354e-05
-5.44493e-05
-5.45597e-05
-5.46825e-05
-5.4815e-05
-5.49544e-05
-6.1349e-05
-6.12196e-05
-6.10959e-05
-6.09808e-05
-6.08768e-05
-6.07866e-05
-6.07127e-05
-6.06571e-05
-6.06224e-05
-6.06102e-05
-6.06102e-05
-6.06224e-05
-6.06571e-05
-6.07127e-05
-6.07866e-05
-6.08768e-05
-6.09808e-05
-6.10959e-05
-6.12196e-05
-6.1349e-05
-6.65805e-05
-6.64566e-05
-6.63378e-05
-6.62266e-05
-6.61258e-05
-6.60379e-05
-6.59654e-05
-6.59104e-05
-6.58754e-05
-6.58618e-05
-6.58618e-05
-6.58754e-05
-6.59104e-05
-6.59654e-05
-6.60379e-05
-6.61258e-05
-6.62266e-05
-6.63378e-05
-6.64566e-05
-6.65805e-05
-7.08444e-05
-7.07229e-05
-7.06063e-05
-7.04969e-05
-7.03972e-05
-7.03098e-05
-7.02371e-05
-7.01816e-05
-7.01453e-05
-7.01299e-05
-7.01299e-05
-7.01453e-05
-7.01816e-05
-7.02371e-05
-7.03097e-05
-7.03972e-05
-7.04969e-05
-7.06063e-05
-7.07229e-05
-7.08444e-05
-7.43053e-05
-7.41843e-05
-7.40681e-05
-7.39588e-05
-7.38589e-05
-7.37708e-05
-7.36971e-05
-7.36403e-05
-7.36024e-05
-7.3585e-05
-7.3585e-05
-7.36024e-05
-7.36403e-05
-7.36971e-05
-7.37708e-05
-7.38589e-05
-7.39588e-05
-7.40681e-05
-7.41843e-05
-7.43053e-05
-7.71038e-05
-7.6982e-05
-7.68651e-05
-7.6755e-05
-7.66539e-05
-7.65645e-05
-7.64892e-05
-7.64306e-05
-7.6391e-05
-7.63718e-05
-7.63718e-05
-7.6391e-05
-7.64306e-05
-7.64892e-05
-7.65645e-05
-7.66539e-05
-7.6755e-05
-7.68651e-05
-7.6982e-05
-7.71038e-05
-7.93586e-05
-7.92352e-05
-7.91168e-05
-7.90052e-05
-7.89025e-05
-7.88112e-05
-7.8734e-05
-7.86734e-05
-7.86318e-05
-7.8611e-05
-7.8611e-05
-7.86318e-05
-7.86734e-05
-7.8734e-05
-7.88112e-05
-7.89025e-05
-7.90052e-05
-7.91168e-05
-7.92352e-05
-7.93586e-05
-8.11687e-05
-8.10431e-05
-8.09227e-05
-8.08092e-05
-8.07044e-05
-8.06109e-05
-8.05313e-05
-8.04684e-05
-8.04248e-05
-8.04024e-05
-8.04024e-05
-8.04248e-05
-8.04684e-05
-8.05313e-05
-8.06109e-05
-8.07044e-05
-8.08092e-05
-8.09227e-05
-8.10431e-05
-8.11687e-05
-8.26167e-05
-8.24883e-05
-8.23654e-05
-8.22493e-05
-8.21418e-05
-8.20455e-05
-8.1963e-05
-8.18975e-05
-8.18515e-05
-8.18273e-05
-8.18273e-05
-8.18515e-05
-8.18975e-05
-8.1963e-05
-8.20455e-05
-8.21418e-05
-8.22493e-05
-8.23654e-05
-8.24883e-05
-8.26167e-05
-8.37701e-05
-8.36384e-05
-8.35122e-05
-8.33927e-05
-8.32818e-05
-8.31818e-05
-8.30958e-05
-8.30269e-05
-8.29781e-05
-8.29517e-05
-8.29517e-05
-8.29781e-05
-8.30269e-05
-8.30958e-05
-8.31818e-05
-8.32818e-05
-8.33927e-05
-8.35122e-05
-8.36384e-05
-8.37701e-05
-8.4684e-05
-8.45485e-05
-8.44184e-05
-8.42947e-05
-8.41793e-05
-8.40748e-05
-8.39843e-05
-8.39112e-05
-8.38588e-05
-8.38294e-05
-8.38294e-05
-8.38588e-05
-8.39112e-05
-8.39843e-05
-8.40748e-05
-8.41793e-05
-8.42947e-05
-8.44184e-05
-8.45485e-05
-8.4684e-05
-8.54042e-05
-8.52644e-05
-8.51294e-05
-8.50005e-05
-8.48795e-05
-8.47693e-05
-8.46732e-05
-8.4595e-05
-8.4538e-05
-8.45047e-05
-8.45047e-05
-8.4538e-05
-8.4595e-05
-8.46732e-05
-8.47693e-05
-8.48795e-05
-8.50005e-05
-8.51294e-05
-8.52644e-05
-8.54042e-05
-8.59678e-05
-8.5823e-05
-8.56821e-05
-8.55467e-05
-8.54189e-05
-8.53016e-05
-8.51986e-05
-8.51142e-05
-8.50515e-05
-8.50136e-05
-8.50136e-05
-8.50515e-05
-8.51142e-05
-8.51986e-05
-8.53016e-05
-8.54189e-05
-8.55467e-05
-8.56821e-05
-8.5823e-05
-8.59678e-05
-8.64049e-05
-8.6254e-05
-8.6106e-05
-8.59627e-05
-8.58264e-05
-8.57007e-05
-8.55896e-05
-8.54976e-05
-8.54284e-05
-8.53849e-05
-8.53849e-05
-8.54284e-05
-8.54976e-05
-8.55896e-05
-8.57007e-05
-8.58264e-05
-8.59627e-05
-8.6106e-05
-8.6254e-05
-8.64049e-05
-8.67394e-05
-8.65811e-05
-8.64243e-05
-8.62712e-05
-8.61248e-05
-8.5989e-05
-8.58684e-05
-8.57678e-05
-8.5691e-05
-8.56414e-05
-8.56414e-05
-8.5691e-05
-8.57678e-05
-8.58684e-05
-8.5989e-05
-8.61248e-05
-8.62712e-05
-8.64243e-05
-8.65811e-05
-8.67394e-05
-8.69892e-05
-8.68215e-05
-8.66536e-05
-8.64885e-05
-8.63299e-05
-8.61824e-05
-8.6051e-05
-8.59412e-05
-8.58566e-05
-8.58009e-05
-8.58009e-05
-8.58566e-05
-8.59412e-05
-8.6051e-05
-8.61824e-05
-8.63299e-05
-8.64884e-05
-8.66535e-05
-8.68215e-05
-8.69892e-05
-8.71666e-05
-8.69864e-05
-8.68041e-05
-8.6624e-05
-8.64509e-05
-8.62904e-05
-8.61477e-05
-8.60287e-05
-8.59367e-05
-8.58752e-05
-8.58752e-05
-8.59367e-05
-8.60287e-05
-8.61477e-05
-8.62904e-05
-8.64509e-05
-8.6624e-05
-8.68041e-05
-8.69864e-05
-8.71666e-05
-8.72773e-05
-8.70799e-05
-8.68788e-05
-8.66797e-05
-8.64892e-05
-8.6314e-05
-8.61584e-05
-8.6027e-05
-8.59236e-05
-8.58541e-05
-8.58541e-05
-8.59236e-05
-8.6027e-05
-8.61584e-05
-8.6314e-05
-8.64892e-05
-8.66797e-05
-8.68788e-05
-8.70799e-05
-8.72773e-05
-8.73197e-05
-8.7098e-05
-8.68712e-05
-8.66472e-05
-8.64322e-05
-8.6229e-05
-8.60469e-05
-8.58943e-05
-8.57759e-05
-8.56978e-05
-8.56978e-05
-8.57759e-05
-8.58943e-05
-8.60469e-05
-8.6229e-05
-8.64322e-05
-8.66472e-05
-8.68712e-05
-8.7098e-05
-8.73197e-05
-8.72831e-05
-8.70261e-05
-8.67622e-05
-8.64971e-05
-8.62374e-05
-8.59933e-05
-8.57785e-05
-8.56029e-05
-8.5471e-05
-8.53863e-05
-8.53863e-05
-8.5471e-05
-8.56029e-05
-8.57785e-05
-8.59933e-05
-8.62374e-05
-8.64971e-05
-8.67622e-05
-8.70261e-05
-8.72831e-05
-8.71455e-05
-8.68362e-05
-8.65125e-05
-8.61835e-05
-8.58665e-05
-8.55798e-05
-8.53335e-05
-8.51354e-05
-8.49894e-05
-8.48984e-05
-8.48984e-05
-8.49894e-05
-8.51354e-05
-8.53335e-05
-8.55797e-05
-8.58665e-05
-8.61835e-05
-8.65124e-05
-8.68362e-05
-8.71455e-05
-8.68708e-05
-8.64809e-05
-8.60696e-05
-8.56616e-05
-8.52805e-05
-8.49415e-05
-8.46542e-05
-8.44264e-05
-8.42621e-05
-8.41639e-05
-8.41639e-05
-8.42621e-05
-8.44264e-05
-8.46542e-05
-8.49415e-05
-8.52805e-05
-8.56616e-05
-8.60696e-05
-8.64809e-05
-8.68708e-05
-8.64045e-05
-8.58956e-05
-8.53715e-05
-8.48654e-05
-8.43998e-05
-8.39899e-05
-8.36466e-05
-8.33781e-05
-8.31889e-05
-8.30813e-05
-8.30813e-05
-8.31889e-05
-8.33781e-05
-8.36466e-05
-8.39899e-05
-8.43998e-05
-8.48654e-05
-8.53714e-05
-8.58956e-05
-8.64045e-05
-8.56666e-05
-8.49984e-05
-8.43276e-05
-8.36897e-05
-8.31092e-05
-8.26033e-05
-8.21844e-05
-8.18608e-05
-8.16372e-05
-8.15159e-05
-8.15159e-05
-8.16372e-05
-8.18608e-05
-8.21844e-05
-8.26033e-05
-8.31092e-05
-8.36897e-05
-8.43276e-05
-8.49984e-05
-8.56666e-05
-8.45556e-05
-8.36754e-05
-8.28065e-05
-8.19904e-05
-8.12557e-05
-8.06223e-05
-8.0103e-05
-7.97061e-05
-7.94361e-05
-7.92952e-05
-7.92952e-05
-7.94361e-05
-7.97061e-05
-8.0103e-05
-8.06223e-05
-8.12557e-05
-8.19904e-05
-8.28065e-05
-8.36754e-05
-8.45556e-05
-8.29397e-05
-8.177e-05
-8.06327e-05
-7.95792e-05
-7.86423e-05
-7.78433e-05
-7.71949e-05
-7.67039e-05
-7.63738e-05
-7.6206e-05
-7.6206e-05
-7.63738e-05
-7.67039e-05
-7.71949e-05
-7.78433e-05
-7.86423e-05
-7.95792e-05
-8.06327e-05
-8.177e-05
-8.29396e-05
-8.06393e-05
-7.9074e-05
-7.7579e-05
-7.62164e-05
-7.50214e-05
-7.40145e-05
-7.32065e-05
-7.26009e-05
-7.21978e-05
-7.19963e-05
-7.19963e-05
-7.21978e-05
-7.26009e-05
-7.32065e-05
-7.40145e-05
-7.50214e-05
-7.62164e-05
-7.7579e-05
-7.9074e-05
-8.06393e-05
-7.74151e-05
-7.53201e-05
-7.33595e-05
-7.16076e-05
-7.00966e-05
-6.88395e-05
-6.78435e-05
-6.71056e-05
-6.66198e-05
-6.63808e-05
-6.63808e-05
-6.66198e-05
-6.71056e-05
-6.78435e-05
-6.88395e-05
-7.00966e-05
-7.16076e-05
-7.33595e-05
-7.53201e-05
-7.74151e-05
-7.29739e-05
-7.0196e-05
-6.76479e-05
-6.54057e-05
-6.35114e-05
-6.19688e-05
-6.07673e-05
-5.98894e-05
-5.93189e-05
-5.90434e-05
-5.90434e-05
-5.93189e-05
-5.98894e-05
-6.07673e-05
-6.19688e-05
-6.35114e-05
-6.54057e-05
-6.76479e-05
-7.0196e-05
-7.29739e-05
-6.70235e-05
-6.33195e-05