/*--------------------------------*- C++ -*----------------------------------*\
  =========                 |
  \\      /  F ield         | OpenFOAM: The Open Source CFD Toolbox
   \\    /   O peration     | Website:  https://openfoam.org
    \\  /    A nd           | Version:  6
     \\/     M anipulation  |
\*---------------------------------------------------------------------------*/
FoamFile
{
    version     2.0;
    format      ascii;
    class       surfaceScalarField;
    location    "30";
    object      phi;
}
// * * * * * * * * * * * * * * * * * * * * * * * * * * * * * * * * * * * * * //

dimensions      [0 3 -1 0 0 0 0];

internalField   nonuniform List<scalar> 
17340
(
-5.34944e-11
5.34921e-11
-5.47568e-11
1.26244e-12
-5.24416e-11
-2.31518e-12
-5.64559e-11
4.01429e-12
-6.45802e-11
8.12433e-12
-7.49531e-11
1.03729e-11
-8.64649e-11
1.15118e-11
-9.85452e-11
1.20803e-11
-1.10924e-10
1.23787e-11
-1.23478e-10
1.25543e-11
-1.36154e-10
1.26757e-11
-1.48927e-10
1.27729e-11
-1.61783e-10
1.2856e-11
-1.74707e-10
1.29243e-11
-1.87678e-10
1.29707e-11
-2.00662e-10
1.29842e-11
-2.13613e-10
1.29514e-11
-2.26471e-10
1.28579e-11
-2.3916e-10
1.26887e-11
-2.51589e-10
1.24294e-11
-2.63656e-10
1.20669e-11
-2.75247e-10
1.15902e-11
-2.86238e-10
1.09913e-11
-2.96504e-10
1.02662e-11
-3.05919e-10
9.41498e-12
-3.14361e-10
8.44239e-12
-3.21718e-10
7.35627e-12
-3.27883e-10
6.16521e-12
-3.32758e-10
4.87524e-12
-3.36249e-10
3.49119e-12
-3.38289e-10
2.03929e-12
-3.38744e-10
4.55496e-13
-3.37356e-10
-1.38789e-12
-3.33933e-10
-3.42317e-12
-3.2833e-10
-5.60288e-12
-3.20448e-10
-7.88194e-12
-3.10229e-10
-1.02196e-11
-2.97647e-10
-1.25812e-11
-2.82713e-10
-1.49348e-11
-1.72503e-11
-2.65462e-10
5.87739e-12
4.76147e-11
-3.50706e-11
4.22104e-11
-7.70811e-11
3.96953e-11
-1.14012e-10
4.09456e-11
-1.48416e-10
4.25278e-11
-1.81805e-10
4.37616e-11
-2.14895e-10
4.46019e-11
-2.47963e-10
4.51483e-11
-2.81089e-10
4.55051e-11
-3.14283e-10
4.57477e-11
-3.47526e-10
4.59187e-11
-3.80785e-10
4.60325e-11
-4.14012e-10
4.60826e-11
-4.47134e-10
4.6047e-11
-4.80057e-10
4.58931e-11
-5.12654e-10
4.55815e-11
-5.44772e-10
4.50691e-11
-5.76226e-10
4.43118e-11
-6.06804e-10
4.32667e-11
-6.36269e-10
4.18949e-11
-6.64365e-10
4.01632e-11
-6.90822e-10
3.80463e-11
-7.15359e-10
3.5529e-11
-7.37701e-10
3.26075e-11
-7.57576e-10
2.92901e-11
-7.74729e-10
2.55958e-11
-7.88924e-10
2.15508e-11
-7.9994e-10
1.71816e-11
-8.07572e-10
1.25073e-11
-8.11622e-10
7.5407e-12
-8.11884e-10
2.30179e-12
-8.08114e-10
-3.31498e-12
-7.99926e-10
-9.57588e-12
-7.87018e-10
-1.63304e-11
-7.6926e-10
-2.33613e-11
-7.46598e-10
-3.05443e-11
-7.19039e-10
-3.77783e-11
-6.86646e-10
-4.49744e-11
-6.49528e-10
-5.20526e-11
-5.89386e-11
-6.0784e-10
-3.71183e-12
5.13265e-11
-4.96276e-11
8.81262e-11
-1.06158e-10
9.62261e-11
-1.61933e-10
9.67198e-11
-2.15522e-10
9.61173e-11
-2.67427e-10
9.56662e-11
-3.18291e-10
9.54665e-11
-3.68542e-10
9.53992e-11
-4.18401e-10
9.53642e-11
-4.67956e-10
9.53022e-11
-5.17208e-10
9.51706e-11
-5.661e-10
9.49252e-11
-6.14531e-10
9.45128e-11
-6.62354e-10
9.38704e-11
-7.09387e-10
9.29263e-11
-7.5541e-10
9.16039e-11
-8.00166e-10
8.98254e-11
-8.43369e-10
8.75152e-11
-8.84707e-10
8.4604e-11
-9.23844e-10
8.1032e-11
-9.60433e-10
7.67521e-11
-9.94119e-10
7.17331e-11
-1.02455e-09
6.59615e-11
-1.05139e-09
5.94435e-11
-1.0743e-09
5.22044e-11
-1.09299e-09
4.42859e-11
-1.10718e-09
3.57387e-11
-1.11661e-09
2.66117e-11
-1.12104e-09
1.69412e-11
-1.12024e-09
6.73335e-12
-1.1139e-09
-4.03751e-12
-1.10161e-09
-1.56042e-11
-1.08324e-09
-2.79469e-11
-1.05879e-09
-4.07783e-11
-1.0283e-09
-5.3854e-11
-9.91853e-10
-6.69881e-11
-9.49604e-10
-8.00268e-11
-9.0174e-10
-9.28388e-11
-8.48484e-10
-1.05309e-10
-1.17334e-10
-7.90089e-10
-2.42265e-11
7.5553e-11
-7.44546e-11
1.38354e-10
-1.36128e-10
1.57899e-10
-2.01249e-10
1.61841e-10
-2.66572e-10
1.6144e-10
-3.31144e-10
1.60239e-10
-3.94822e-10
1.59144e-10
-4.57672e-10
1.58249e-10
-5.19763e-10
1.57455e-10
-5.81104e-10
1.56643e-10
-6.41636e-10
1.55703e-10
-7.0124e-10
1.54529e-10
-7.59744e-10
1.53017e-10
-8.16932e-10
1.51058e-10
-8.72547e-10
1.48541e-10
-9.26296e-10
1.45353e-10
-9.77858e-10
1.41388e-10
-1.02689e-09
1.36546e-10
-1.07303e-09
1.30742e-10
-1.1159e-09
1.23905e-10
-1.15513e-09
1.15985e-10
-1.19036e-09
1.06956e-10
-1.22121e-09
9.68169e-11
-1.24736e-09
8.55928e-11
-1.26849e-09
7.3334e-11
-1.28432e-09
6.01112e-11
-1.29458e-09
4.6004e-11
-1.29905e-09
3.10813e-11
-1.29749e-09
1.53846e-11
-1.28964e-09
-1.1192e-12
-1.27509e-09
-1.85892e-11
-1.25374e-09
-3.69514e-11
-1.22579e-09
-5.58997e-11
-1.19143e-09
-7.51356e-11
-1.15088e-09
-9.44022e-11
-1.10439e-09
-1.13485e-10
-1.05221e-09
-1.32207e-10
-9.94626e-10
-1.5042e-10
-9.31934e-10
-1.68001e-10
-1.84841e-10
-8.64427e-10
-3.16348e-11
1.07188e-10
-8.77756e-11
1.94495e-10
-1.54994e-10
2.25117e-10
-2.26714e-10
2.33562e-10
-2.99708e-10
2.34434e-10
-3.72544e-10
2.33074e-10
-4.44632e-10
2.31232e-10
-5.15736e-10
2.29353e-10
-5.85731e-10
2.2745e-10
-6.54497e-10
2.2541e-10
-7.21885e-10
2.2309e-10
-7.87699e-10
2.20343e-10
-8.51703e-10
2.17021e-10
-9.13623e-10
2.12979e-10
-9.73157e-10
2.08074e-10
-1.02997e-09
2.0217e-10
-1.08373e-09
1.95141e-10
-1.13406e-09
1.86876e-10
-1.1806e-09
1.77284e-10
-1.22299e-09
1.66298e-10
-1.26088e-09
1.53874e-10
-1.29393e-09
1.40003e-10
-1.32181e-09
1.24703e-10
-1.34425e-09
1.08027e-10
-1.36097e-09
9.00545e-11
-1.37175e-09
7.08897e-11
-1.37638e-09
5.06387e-11
-1.37468e-09
2.93796e-11
-1.36641e-09
7.11724e-12
-1.35129e-09
-1.62421e-11
-1.3292e-09
-4.0676e-11
-1.3004e-09
-6.5752e-11
-1.2652e-09
-9.10993e-11
-1.22393e-09
-1.16403e-10
-1.17694e-09
-1.41397e-10
-1.12457e-09
-1.6586e-10
-1.06716e-09
-1.89616e-10
-1.00505e-09
-2.1253e-10
-9.38551e-10
-2.34497e-10
-2.5543e-10
-8.67962e-10
-3.27339e-11
1.39922e-10
-9.24544e-11
2.54216e-10
-1.63654e-10
2.96318e-10
-2.39584e-10
3.09492e-10
-3.17056e-10
3.11906e-10
-3.94522e-10
3.1054e-10
-4.7121e-10
3.0792e-10
-5.46702e-10
3.04845e-10
-6.20724e-10
3.01472e-10
-6.93042e-10
2.97728e-10
-7.63419e-10
2.93466e-10
-8.31594e-10
2.88518e-10
-8.97285e-10
2.82712e-10
-9.60184e-10
2.75879e-10
-1.01997e-09
2.6786e-10
-1.07631e-09
2.58507e-10
-1.12886e-09
2.4769e-10
-1.17728e-09
2.35298e-10
-1.22124e-09
2.21246e-10
-1.26042e-09
2.05479e-10
-1.29452e-09
1.87973e-10
-1.32326e-09
1.6874e-10
-1.34638e-09
1.47825e-10
-1.36366e-09
1.2531e-10
-1.37492e-09
1.01309e-10
-1.37998e-09
7.59541e-11
-1.37871e-09
4.93646e-11
-1.37094e-09
2.1608e-11
-1.35647e-09
-7.34665e-12
-1.33521e-09
-3.75084e-11
-1.30739e-09
-6.8497e-11
-1.27335e-09
-9.97853e-11
-1.23349e-09
-1.30958e-10
-1.18822e-09
-1.61676e-10
-1.13796e-09
-1.9166e-10
-1.08312e-09
-2.20694e-10
-1.02412e-09
-2.48623e-10
-9.61301e-10
-2.75346e-10
-8.94997e-10
-3.00801e-10
-3.2495e-10
-8.25476e-10
-3.19655e-11
1.71887e-10
-9.20618e-11
3.14312e-10
-1.643e-10
3.68555e-10
-2.41563e-10
3.86755e-10
-3.20489e-10
3.90832e-10
-3.99409e-10
3.89461e-10
-4.77432e-10
3.85942e-10
-5.54019e-10
3.81432e-10
-6.2879e-10
3.76243e-10
-7.01425e-10
3.70364e-10
-7.71623e-10
3.63664e-10
-8.39081e-10
3.55976e-10
-9.03489e-10
3.4712e-10
-9.64533e-10
3.36923e-10
-1.0219e-09
3.25223e-10
-1.07526e-09
3.11875e-10
-1.12433e-09
2.96754e-10
-1.16879e-09
2.79765e-10
-1.20839e-09
2.60837e-10
-1.24284e-09
2.39936e-10
-1.27193e-09
2.17063e-10
-1.29545e-09
1.92255e-10
-1.31321e-09
1.65588e-10
-1.32507e-09
1.37175e-10
-1.33092e-09
1.07157e-10
-1.33065e-09
7.56864e-11
-1.32417e-09
4.28763e-11
-1.31131e-09
8.74804e-12
-1.29201e-09
-2.66462e-11
-1.26639e-09
-6.31211e-11
-1.23481e-09
-1.00081e-10
-1.19764e-09
-1.3695e-10
-1.15534e-09
-1.73267e-10
-1.10835e-09
-2.08657e-10
-1.05719e-09
-2.42825e-10
-1.00233e-09
-2.75558e-10
-9.44214e-10
-3.06735e-10
-8.83251e-10
-3.36308e-10
-8.19765e-10
-3.64287e-10
-3.9071e-10
-7.54006e-10
-2.98542e-11
2.01741e-10
-8.76907e-11
3.72148e-10
-1.58215e-10
4.3908e-10
-2.34132e-10
4.62672e-10
-3.11855e-10
4.68555e-10
-3.89558e-10
4.67163e-10
-4.66233e-10
4.62617e-10
-5.41251e-10
4.56451e-10
-6.14158e-10
4.4915e-10
-6.84577e-10
4.40783e-10
-7.52168e-10
4.31255e-10
-8.16608e-10
4.20415e-10
-8.77583e-10
4.08095e-10
-9.3479e-10
3.94131e-10
-9.8794e-10
3.78372e-10
-1.03675e-09
3.60689e-10
-1.08098e-09
3.40976e-10
-1.12037e-09
3.19156e-10
-1.15471e-09
2.95185e-10
-1.18383e-09
2.69053e-10
-1.20756e-09
2.4079e-10
-1.22576e-09
2.1046e-10
-1.23834e-09
1.78167e-10
-1.24522e-09
1.44048e-10
-1.24632e-09
1.08263e-10
-1.2416e-09
7.09662e-11
-1.23098e-09
3.2257e-11
-1.21437e-09
-7.86553e-12
-1.19173e-09
-4.92862e-11
-1.16335e-09
-9.14998e-11
-1.12959e-09
-1.33839e-10
-1.09087e-09
-1.75674e-10
-1.04766e-09
-2.16478e-10
-1.00049e-09
-2.55825e-10
-9.49929e-10
-2.93385e-10
-8.96538e-10
-3.28949e-10
-8.40839e-10
-3.62434e-10
-7.83278e-10
-3.93869e-10
-7.24205e-10
-4.23359e-10
-4.51055e-10
-6.63861e-10
-2.65451e-11
2.28287e-10
-8.00633e-11
4.25666e-10
-1.46616e-10
5.05633e-10
-2.18945e-10
5.35001e-10
-2.93271e-10
5.42881e-10
-3.67599e-10
5.41492e-10
-4.4081e-10
5.35828e-10
-5.12197e-10
5.27838e-10
-5.81254e-10
5.18207e-10
-6.47573e-10
5.07101e-10
-7.10796e-10
4.94478e-10
-7.70599e-10
4.80219e-10
-8.26684e-10
4.6418e-10
-8.78775e-10
4.46221e-10
-9.26618e-10
4.26215e-10
-9.69985e-10
4.04056e-10
-1.00868e-09
3.79666e-10
-1.04251e-09
3.52995e-10
-1.07136e-09
3.24026e-10
-1.09508e-09
2.9278e-10
-1.1136e-09
2.5931e-10
-1.12685e-09
2.23708e-10
-1.13478e-09
1.861e-10
-1.13738e-09
1.46638e-10
-1.1346e-09
1.05483e-10
-1.12638e-09
6.2755e-11
-1.11265e-09
1.85201e-11
-1.09339e-09
-2.71254e-11
-1.06863e-09
-7.40386e-11
-1.03864e-09
-1.21492e-10
-1.00378e-09
-1.68702e-10
-9.64491e-10
-2.14963e-10
-9.21302e-10
-2.59667e-10
-8.74814e-10
-3.02313e-10
-8.25681e-10
-3.42518e-10
-7.74566e-10
-3.80064e-10
-7.22085e-10
-4.14915e-10
-6.68761e-10
-4.47192e-10
-6.14988e-10
-4.77133e-10
-5.05031e-10
-5.61012e-10
-2.2397e-11
2.50684e-10
-7.00125e-11
4.73282e-10
-1.30781e-10
5.66401e-10
-1.97705e-10
6.01925e-10
-2.66878e-10
6.12054e-10
-3.36148e-10
6.10761e-10
-4.04281e-10
6.0396e-10
-4.70502e-10
5.94059e-10
-5.34267e-10
5.81972e-10
-5.95151e-10
5.67986e-10
-6.52799e-10
5.52126e-10
-7.06901e-10
5.3432e-10
-7.57181e-10
5.14461e-10
-8.034e-10
4.9244e-10
-8.45349e-10
4.68164e-10
-8.82852e-10
4.41559e-10
-9.15764e-10
4.12578e-10
-9.43971e-10
3.81202e-10
-9.67389e-10
3.47444e-10
-9.85959e-10
3.11351e-10
-9.99649e-10
2.73e-10
-1.00844e-09
2.32503e-10
-1.01234e-09
1.89998e-10
-1.01135e-09
1.45643e-10
-1.00545e-09
9.95906e-11
-9.94615e-10
5.19149e-11
-9.78645e-10
2.55022e-12
-9.5748e-10
-4.82898e-11
-9.3132e-10
-1.00198e-10
-9.00395e-10
-1.52418e-10
-8.65046e-10
-2.0405e-10
-8.2574e-10
-2.54269e-10
-7.83054e-10
-3.02354e-10
-7.37667e-10
-3.47699e-10
-6.9034e-10
-3.89845e-10
-6.41856e-10
-4.28548e-10
-5.92953e-10
-4.63818e-10
-5.44253e-10
-4.95892e-10
-4.96215e-10
-5.25171e-10
-5.52131e-10
-4.49115e-10
-1.77664e-11
2.6845e-10
-5.83387e-11
5.13854e-10
-1.11925e-10
6.19988e-10
-1.72023e-10
6.62022e-10
-2.34685e-10
6.74716e-10
-2.97623e-10
6.737e-10
-3.59493e-10
6.6583e-10
-4.19455e-10
6.54021e-10
-4.76933e-10
6.39451e-10
-5.31497e-10
6.22549e-10
-5.828e-10
6.03429e-10
-6.30553e-10
5.82073e-10
-6.74514e-10
5.58422e-10
-7.14481e-10
5.32408e-10
-7.5029e-10
5.03974e-10
-7.81815e-10
4.73083e-10
-8.0896e-10
4.39724e-10
-8.31666e-10
4.03907e-10
-8.49897e-10
3.65676e-10
-8.63645e-10
3.25098e-10
-8.72915e-10
2.8227e-10
-8.77723e-10
2.37312e-10
-8.78088e-10
1.90363e-10
-8.74011e-10
1.41566e-10
-8.65456e-10
9.10348e-11
-8.5235e-10
3.88092e-11
-8.3466e-10
-1.51396e-11
-8.12239e-10
-7.07107e-11
-7.85169e-10
-1.27269e-10
-7.53694e-10
-1.83892e-10
-7.18177e-10
-2.39567e-10
-6.79117e-10
-2.9333e-10
-6.37149e-10
-3.44321e-10
-5.93039e-10
-3.9181e-10
-5.47657e-10
-4.35227e-10
-5.01928e-10
-4.74277e-10
-4.56724e-10
-5.09022e-10
-4.12786e-10
-5.3983e-10
-3.70659e-10
-5.67299e-10
-5.92124e-10
-3.30666e-10
-1.29464e-11
2.81396e-10
-4.57468e-11
5.46655e-10
-9.11474e-11
6.65389e-10
-1.43358e-10
7.14233e-10
-1.985e-10
7.29858e-10
-2.54184e-10
7.29383e-10
-3.08961e-10
7.20608e-10
-3.61928e-10
7.06987e-10
-4.12479e-10
6.90002e-10
-4.60179e-10
6.70249e-10
-5.04694e-10
6.47944e-10
-5.45761e-10
6.2314e-10
-5.8317e-10
5.9583e-10
-6.16755e-10
5.65992e-10
-6.46393e-10
5.33612e-10
-6.71998e-10
4.98689e-10
-6.93521e-10
4.61246e-10
-7.1094e-10
4.21327e-10
-7.2426e-10
3.78996e-10
-7.33503e-10
3.34341e-10
-7.38701e-10
2.87467e-10
-7.39887e-10
2.38497e-10
-7.37082e-10
1.87558e-10
-7.30282e-10
1.34767e-10
-7.19422e-10
8.01742e-11
-7.04379e-10
2.37668e-11
-6.85094e-10
-3.44248e-11
-6.61492e-10
-9.43131e-11
-6.33644e-10
-1.55117e-10
-6.01753e-10
-2.15783e-10
-5.66184e-10
-2.75137e-10
-5.27469e-10
-3.32045e-10
-4.86306e-10
-3.85484e-10
-4.43538e-10
-4.34578e-10
-4.00152e-10
-4.78612e-10
-3.57215e-10
-5.17215e-10
-3.1574e-10
-5.50496e-10
-2.76596e-10
-5.78975e-10
-2.40419e-10
-6.03475e-10
-6.24937e-10
-2.07606e-10
-8.18294e-12
2.89579e-10
-3.28484e-11
5.7132e-10
-6.94129e-11
7.01953e-10
-1.12998e-10
7.57818e-10
-1.59909e-10
7.76769e-10
-2.07702e-10
7.77177e-10
-2.54842e-10
7.67747e-10
-3.00356e-10
7.52502e-10
-3.4361e-10
7.33255e-10
-3.8416e-10
7.108e-10
-4.21685e-10
6.85469e-10
-4.55943e-10
6.57398e-10
-4.86753e-10
6.2664e-10
-5.13982e-10
5.93221e-10
-5.3754e-10
5.5717e-10
-5.57375e-10
5.18523e-10
-5.73466e-10
4.77338e-10
-5.85824e-10
4.33684e-10
-5.94476e-10
3.87648e-10
-5.99462e-10
3.39327e-10
-6.00826e-10
2.88831e-10
-5.98601e-10
2.36272e-10
-5.92803e-10
1.81761e-10
-5.83415e-10
1.25378e-10
-5.70357e-10
6.71164e-11
-5.53411e-10
6.82132e-12
-5.32476e-10
-5.53605e-11
-5.0765e-10
-1.19139e-10
-4.78998e-10
-1.83769e-10
-4.46675e-10
-2.48105e-10
-4.11047e-10
-3.10765e-10
-3.72691e-10
-3.704e-10
-3.32368e-10
-4.25807e-10
-2.90985e-10
-4.75961e-10
-2.4964e-10
-5.19957e-10
-2.09542e-10
-5.57314e-10
-1.71827e-10
-5.8821e-10
-1.37486e-10
-6.13316e-10
-1.07255e-10
-6.33706e-10
-6.50582e-10
-8.161e-11
-3.69019e-12
2.9327e-10
-2.01676e-11
5.87798e-10
-4.75534e-11
7.29339e-10
-8.20502e-11
7.92315e-10
-1.20267e-10
8.14985e-10
-1.59767e-10
8.16677e-10
-1.98943e-10
8.06923e-10
-2.36761e-10
7.9032e-10
-2.72547e-10
7.69041e-10
-3.05846e-10
7.44099e-10
-3.36343e-10
7.15966e-10
-3.63813e-10
6.84869e-10
-3.88099e-10
6.50925e-10
-4.09091e-10
6.14214e-10
-4.26724e-10
5.74803e-10
-4.40968e-10
5.32767e-10
-4.51824e-10
4.88194e-10
-4.59318e-10
4.41178e-10
-4.63489e-10
3.91819e-10
-4.64383e-10
3.40222e-10
-4.62041e-10
2.86489e-10
-4.56485e-10
2.30716e-10
-4.47702e-10
1.72978e-10
-4.3562e-10
1.13296e-10
-4.20114e-10
5.16104e-11
-4.01113e-10
-1.21797e-11
-3.78526e-10
-7.79477e-11
-3.524e-10
-1.45264e-10
-3.2284e-10
-2.1333e-10
-2.89978e-10
-2.80967e-10
-2.54215e-10
-3.46528e-10
-2.16186e-10
-4.0843e-10
-1.76717e-10
-4.65276e-10
-1.36777e-10
-5.159e-10
-9.75703e-11
-5.59164e-10
-6.04188e-11
-5.94465e-10
-2.65344e-11
-6.22095e-10
3.00331e-12
-6.42854e-10
2.72891e-11
-6.57992e-10
-6.6909e-10
4.57969e-11
3.69524e-13
2.929e-10
-8.14607e-12
5.96313e-10
-2.62751e-11
7.47468e-10
-5.14536e-11
8.17493e-10
-8.07162e-11
8.44248e-10
-1.11701e-10
8.47662e-10
-1.42756e-10
8.37978e-10
-1.72788e-10
8.20351e-10
-2.01079e-10
7.97332e-10
-2.27155e-10
7.70175e-10
-2.50698e-10
7.3951e-10
-2.71494e-10
7.05665e-10
-2.894e-10
6.6883e-10
-3.04323e-10
6.29137e-10
-3.16214e-10
5.86694e-10
-3.25054e-10
5.41607e-10
-3.30853e-10
4.93993e-10
-3.33644e-10
4.43969e-10
-3.33468e-10
3.91644e-10
-3.30368e-10
3.37122e-10
-3.24374e-10
2.80495e-10
-3.15493e-10
2.21835e-10
-3.0369e-10
1.61174e-10
-2.88839e-10
9.84448e-11
-2.70712e-10
3.34842e-11
-2.49365e-10
-3.35267e-11
-2.24837e-10
-1.02476e-10
-1.97159e-10
-1.72942e-10
-1.66483e-10
-2.44006e-10
-1.32923e-10
-3.14526e-10
-9.69469e-11
-3.82504e-10
-5.92222e-11
-4.46155e-10
-2.05719e-11
-5.03926e-10
1.78769e-11
-5.54349e-10
5.47739e-11
-5.96061e-10
8.8792e-11
-6.28483e-10
1.18674e-10
-6.51976e-10
1.43259e-10
-6.67439e-10
1.61622e-10
-6.76355e-10
-6.80673e-10
1.73205e-10
3.98857e-12
2.88912e-10
2.88461e-12
5.97417e-10
-6.18535e-12
7.56538e-10
-2.20041e-11
8.33312e-10
-4.22145e-11
8.64458e-10
-6.46007e-11
8.70048e-10
-8.7498e-11
8.60876e-10
-1.09762e-10
8.42615e-10
-1.3063e-10
8.182e-10
-1.49596e-10
7.89141e-10
-1.6633e-10
7.56244e-10
-1.8062e-10
7.19955e-10
-1.92329e-10
6.80539e-10
-2.01374e-10
6.38182e-10
-2.07712e-10
5.93032e-10
-2.11322e-10
5.45217e-10
-2.12217e-10
4.94889e-10
-2.1043e-10
4.42182e-10
-2.05997e-10
3.8721e-10
-1.98947e-10
3.30072e-10
-1.89296e-10
2.70843e-10
-1.77031e-10
2.0957e-10
-1.62102e-10
1.46246e-10
-1.44389e-10
8.07321e-11
-1.2349e-10
1.25847e-11
-9.95264e-11
-5.74902e-11
-7.27419e-11
-1.29261e-10
-4.32246e-11
-2.02459e-10
-1.1095e-11
-2.76136e-10
2.33091e-11
-3.48931e-10
5.94808e-11
-4.18676e-10
9.67878e-11
-4.83462e-10
1.34354e-10
-5.41492e-10
1.70996e-10
-5.90992e-10
2.05475e-10
-6.30539e-10
2.36479e-10
-6.59488e-10
2.62591e-10
-6.78088e-10
2.82525e-10
-6.87373e-10
2.95256e-10
-6.89086e-10
-6.85521e-10
3.00104e-10
7.17501e-12
2.81736e-10
1.27958e-11
5.91796e-10
1.22855e-11
7.57048e-10
5.61882e-12
8.39979e-10
-5.57981e-12
8.75657e-10
-1.93812e-11
8.83849e-10
-3.41647e-11
8.75659e-10
-4.87496e-11
8.572e-10
-6.23246e-11
8.31775e-10
-7.43429e-11
8.0116e-10
-8.44509e-11
7.66352e-10
-9.24301e-11
7.27934e-10
-9.81393e-11
6.86248e-10
-1.01496e-10
6.41539e-10
-1.02458e-10
5.93995e-10
-1.00992e-10
5.4375e-10
-9.71093e-11
4.91006e-10
-9.08374e-11
4.3591e-10
-8.21987e-11
3.78571e-10
-7.12058e-11
3.19079e-10
-5.78497e-11
2.57487e-10
-4.20807e-11
1.93801e-10
-2.37782e-11
1.27943e-10
-2.74907e-12
5.9703e-11
2.11115e-11
-1.12758e-11
4.76376e-11
-8.40164e-11
7.66397e-11
-1.58263e-10
1.07948e-10
-2.33767e-10
1.41333e-10
-3.09521e-10
1.76348e-10
-3.83946e-10
2.12645e-10
-4.54972e-10
2.49635e-10
-5.20452e-10
2.86377e-10
-5.78234e-10
3.21673e-10
-6.26289e-10
3.54183e-10
-6.63049e-10
3.82454e-10
-6.87758e-10
4.04982e-10
-7.00617e-10
4.20392e-10
-7.02784e-10
4.27573e-10
-6.96267e-10
-6.8371e-10
4.25762e-10
9.87818e-12
2.71858e-10
2.15631e-11
5.80111e-10
2.8933e-11
7.49678e-10
3.09299e-11
8.37982e-10
2.85031e-11
8.78084e-10
2.31736e-11
8.89179e-10
1.64109e-11
8.82422e-10
9.39061e-12
8.64221e-10
2.96279e-12
8.38203e-10
-2.28715e-12
8.0641e-10
-5.97104e-12
7.70036e-10
-7.84101e-12
7.29804e-10
-7.74193e-12
6.86149e-10
-5.57951e-12
6.39376e-10
-1.29928e-12
5.89714e-10
5.12298e-12
5.37328e-10
1.36867e-11
4.82443e-10
2.43818e-11
4.25215e-10
3.72003e-11
3.65753e-10
5.21454e-11
3.04134e-10
6.92447e-11
2.40388e-10
8.85679e-11
1.74478e-10
1.10268e-10
1.06243e-10
1.34555e-10
3.54163e-11
1.61181e-10
-3.79023e-11
1.90029e-10
-1.12864e-10
2.21063e-10
-1.89298e-10
2.54068e-10
-2.66772e-10
2.88765e-10
-3.44218e-10
3.24779e-10
-4.19959e-10
3.61679e-10
-4.91873e-10
3.98802e-10
-5.57574e-10
4.35161e-10
-6.14594e-10
4.69496e-10
-6.60624e-10
5.00342e-10
-6.93894e-10
5.26105e-10
-7.13521e-10
5.45186e-10
-7.19698e-10
5.56131e-10
-7.13729e-10
5.57772e-10
-6.97908e-10
-6.75253e-10
5.49315e-10
1.2099e-11
2.59759e-10
2.91333e-11
5.63077e-10
4.36832e-11
7.35129e-10
5.37528e-11
8.27912e-10
5.96455e-11
8.72191e-10
6.24886e-11
8.86336e-10
6.3551e-11
8.8136e-10
6.39413e-11
8.6383e-10
6.45136e-11
8.37631e-10
6.58734e-11
8.0505e-10
6.84406e-11
7.67469e-10
7.25021e-11
7.25743e-10
7.82378e-11
6.80413e-10
8.5759e-11
6.31855e-10
9.51296e-11
5.80344e-10
1.06359e-10
5.26098e-10
1.19465e-10
4.69336e-10
1.34458e-10
4.10223e-10
1.51339e-10
3.48872e-10
1.70122e-10
2.8535e-10
1.90843e-10
2.19668e-10
2.13563e-10
1.51757e-10
2.38398e-10
8.14088e-11
2.65615e-10
8.19912e-12
2.94991e-10
-6.72786e-11
3.26299e-10
-1.44171e-10
3.59459e-10
-2.22458e-10
3.94307e-10
-3.01619e-10
4.30583e-10
-3.80494e-10
4.67934e-10
-4.5731e-10
5.05849e-10
-5.29788e-10
5.43559e-10
-5.95284e-10
5.79978e-10
-6.51012e-10
6.13721e-10
-6.94367e-10
6.43179e-10
-7.23352e-10
6.66622e-10
-7.36964e-10
6.82347e-10
-7.35423e-10
6.8884e-10
-7.20221e-10
6.84906e-10
-6.93974e-10
-6.60111e-10
6.69765e-10
1.38578e-11
2.45902e-10
3.54971e-11
5.41438e-10
5.64793e-11
7.14146e-10
7.39665e-11
8.10425e-10
8.76524e-11
8.58505e-10
9.82692e-11
8.75719e-10
1.06857e-10
8.72771e-10
1.14419e-10
8.56268e-10
1.21778e-10
8.30271e-10
1.29553e-10
7.97276e-10
1.38186e-10
7.58835e-10
1.47991e-10
7.15938e-10
1.5917e-10
6.69234e-10
1.71853e-10
6.19172e-10
1.86112e-10
5.66085e-10
2.01975e-10
5.10235e-10
2.19466e-10
4.51846e-10
2.38601e-10
3.91087e-10
2.59397e-10
3.28076e-10
2.81877e-10
2.6287e-10
3.06091e-10
1.95454e-10
3.32149e-10
1.25699e-10
3.60225e-10
5.33324e-11
3.90316e-10
-2.18913e-11
4.22152e-10
-9.91147e-11
4.55778e-10
-1.77798e-10
4.91105e-10
-2.57785e-10
5.2796e-10
-3.38474e-10
5.66087e-10
-4.18621e-10
6.05104e-10
-4.96327e-10
6.44417e-10
-5.69101e-10
6.83132e-10
-6.34e-10
7.20013e-10
-6.87892e-10
7.53504e-10
-7.27858e-10
7.81823e-10
-7.51671e-10
8.03088e-10
-7.5823e-10
8.15495e-10
-7.47831e-10
8.17486e-10
-7.22212e-10
8.0788e-10
-6.84368e-10
-6.38189e-10
7.85957e-10
1.51818e-11
2.3072e-10
4.06741e-11
5.15945e-10
6.72982e-11
6.87522e-10
9.1489e-11
7.86234e-10
1.12372e-10
8.37623e-10
1.30285e-10
8.57806e-10
1.4602e-10
8.57036e-10
1.60446e-10
8.41842e-10
1.74331e-10
8.16387e-10
1.88285e-10
7.83322e-10
2.02764e-10
7.44355e-10
2.18099e-10
7.00604e-10
2.34511e-10
6.52821e-10
2.52146e-10
6.01537e-10
2.71092e-10
5.4714e-10
2.91394e-10
4.89933e-10
3.13084e-10
4.30155e-10
3.36187e-10
3.67985e-10
3.60726e-10
3.03537e-10
3.86735e-10
2.36861e-10
4.14276e-10
1.67913e-10
4.43475e-10
9.65e-11
4.74588e-10
2.22191e-11
5.0745e-10
-5.47526e-11
5.41818e-10
-1.33483e-10
5.778e-10
-2.1378e-10
6.15375e-10
-2.9536e-10
6.54403e-10
-3.77502e-10
6.94628e-10
-4.58847e-10
7.35623e-10
-5.37322e-10
7.7669e-10
-6.10168e-10
8.16784e-10
-6.74094e-10
8.54477e-10
-7.25585e-10
8.88e-10
-7.61381e-10
9.1536e-10
-7.7903e-10
9.34509e-10
-7.77379e-10
9.43544e-10
-7.56866e-10
9.40887e-10
-7.19554e-10
9.25415e-10
-6.68896e-10
-6.09303e-10
8.9653e-10
1.61028e-11
2.14617e-10
4.47023e-11
4.87346e-10
7.615e-11
6.56075e-10
1.06279e-10
7.56105e-10
1.33698e-10
8.10204e-10
1.58359e-10
8.33145e-10
1.80796e-10
8.34598e-10
2.01721e-10
8.20917e-10
2.21823e-10
7.96284e-10
2.41685e-10
7.6346e-10
2.61762e-10
7.24278e-10
2.82392e-10
6.79974e-10
3.03814e-10
6.314e-10
3.26187e-10
5.79164e-10
3.49612e-10
5.23715e-10
3.7415e-10
4.65394e-10
3.99844e-10
4.04462e-10
4.26724e-10
3.41105e-10
4.54824e-10
2.75437e-10
4.84196e-10
2.07489e-10
5.14934e-10
1.37174e-10
5.472e-10
6.42343e-11
5.81196e-10
-1.17769e-11
6.16638e-10
-9.01941e-11
6.53491e-10
-1.70337e-10
6.91857e-10
-2.52146e-10
7.31768e-10
-3.35271e-10
7.73126e-10
-4.1886e-10
8.15674e-10
-5.01395e-10
8.58924e-10
-5.80572e-10
9.02057e-10
-6.53302e-10
9.43842e-10
-7.15879e-10
9.82617e-10
-7.6436e-10
1.01636e-09
-7.95121e-10
1.04283e-09
-8.055e-10
1.05979e-09
-7.94347e-10
1.06526e-09
-7.62336e-10
1.05767e-09
-7.11958e-10
1.036e-09
-6.47225e-10
-5.73148e-10
9.99841e-10
1.6656e-11
1.97961e-10
4.76362e-11
4.56366e-10
8.30754e-11
6.20635e-10
1.18338e-10
7.20843e-10
1.51575e-10
7.76967e-10
1.82373e-10
8.02347e-10
2.11004e-10
8.05968e-10
2.38006e-10
7.93914e-10
2.63972e-10
7.70319e-10
2.89436e-10
7.37996e-10
3.14837e-10
6.98877e-10
3.40512e-10
6.54298e-10
3.66709e-10
6.05204e-10
3.93596e-10
5.52277e-10
4.21287e-10
4.96024e-10
4.49855e-10
4.36826e-10
4.7935e-10
3.74967e-10
5.09812e-10
3.10642e-10
5.4129e-10
2.43959e-10
5.73859e-10
1.74921e-10
6.07667e-10
1.03366e-10
6.42996e-10
2.89054e-11
6.79734e-10
-4.85148e-11
7.17601e-10
-1.28061e-10
7.56835e-10
-2.09571e-10
7.97585e-10
-2.92895e-10
8.39909e-10
-3.77596e-10
8.8374e-10
-4.6269e-10
9.28806e-10
-5.46461e-10
9.74545e-10
-6.26311e-10
1.01999e-09
-6.98744e-10
1.06368e-09
-7.59574e-10
1.10369e-09
-8.04371e-10
1.1377e-09
-8.29123e-10
1.16318e-09
-8.30984e-10
1.17772e-09
-8.08885e-10
1.17923e-09
-7.63848e-10
1.1662e-09
-6.9893e-10
1.1378e-09
-6.18824e-10
-5.29231e-10
1.09388e-09
1.688e-11
1.81081e-10
4.95449e-11
4.23701e-10
8.81433e-11
5.82037e-10
1.27707e-10
6.81279e-10
1.65998e-10
7.38675e-10
2.02266e-10
7.66079e-10
2.36522e-10
7.71712e-10
2.69126e-10
7.6131e-10
3.00554e-10
7.3889e-10
3.31276e-10
7.07274e-10
3.61701e-10
6.68453e-10
3.92153e-10
6.23846e-10
4.22877e-10
5.74479e-10
4.5405e-10
5.21104e-10
4.8579e-10
4.64284e-10
5.18178e-10
4.04438e-10
5.51274e-10
3.41872e-10
5.85128e-10
2.76788e-10
6.19806e-10
2.09281e-10
6.55418e-10
1.39309e-10
6.92151e-10
6.66337e-11
7.30286e-10
-9.22901e-12
7.69534e-10
-8.77634e-11
8.09875e-10
-1.68402e-10
8.51531e-10
-2.51226e-10
8.94718e-10
-3.36083e-10
9.39551e-10
-4.22428e-10
9.85985e-10
-5.09124e-10
1.03373e-09
-5.94203e-10
1.08212e-09
-6.74702e-10
1.13001e-09
-7.4664e-10
1.17571e-09
-8.05268e-10
1.21694e-09
-8.45606e-10
1.25106e-09
-8.63237e-10
1.27524e-09
-8.55164e-10
1.28685e-09
-8.20497e-10
1.28375e-09
-7.60752e-10
1.26453e-09
-6.79709e-10
1.2286e-09
-5.82894e-10
-4.76801e-10
1.17617e-09
1.68146e-11
1.64266e-10
5.05091e-11
3.90006e-10
9.14475e-11
5.41099e-10
1.34463e-10
6.38263e-10
1.77007e-10
6.96131e-10
2.18026e-10
7.2506e-10
2.57285e-10
7.32454e-10
2.9496e-10
7.23636e-10
3.31401e-10
7.02449e-10
3.67e-10
6.71675e-10
4.02117e-10
6.33335e-10
4.37055e-10
5.88908e-10
4.72049e-10
5.39485e-10
5.0727e-10
4.85883e-10
5.42841e-10
4.28714e-10
5.78845e-10
3.68434e-10
6.15349e-10
3.05368e-10
6.52419e-10
2.39717e-10
6.9015e-10
1.7155e-10
7.28708e-10
1.0075e-10
7.6842e-10
2.69216e-11
8.09202e-10
-5.0011e-11
8.50784e-10
-1.29345e-10
8.93473e-10
-2.11092e-10
9.37535e-10
-2.95288e-10
9.83204e-10
-3.81752e-10
1.03062e-09
-4.69847e-10
1.07975e-09
-5.58253e-10
1.13025e-09
-6.44706e-10
1.18135e-09
-7.258e-10
1.2317e-09
-7.96986e-10
1.27929e-09
-8.52863e-10
1.32152e-09
-8.87835e-10
1.35535e-09
-8.97058e-10
1.37762e-09
-8.77436e-10
1.3855e-09
-8.28376e-10
1.37681e-09
-7.52063e-10
1.35029e-09
-6.53193e-10
1.30569e-09
-5.38287e-10
-4.14744e-10
1.24363e-09
1.64999e-11
1.47766e-10
5.06172e-11
3.55889e-10
9.31017e-11
4.98614e-10
1.38718e-10
5.92647e-10
1.84686e-10
6.50163e-10
2.29696e-10
6.80051e-10
2.73284e-10
6.88866e-10
3.15446e-10
6.81473e-10
3.56402e-10
6.61493e-10
3.96453e-10
6.31625e-10
4.35901e-10
5.93887e-10
4.75012e-10
5.49796e-10
5.14002e-10
5.00496e-10
5.5303e-10
4.46855e-10
5.92214e-10
3.8953e-10
6.3164e-10
3.29008e-10
6.71381e-10
2.65627e-10
7.11522e-10
1.99576e-10
7.522e-10
1.30872e-10
7.93646e-10
5.93049e-11
8.36119e-10
-1.55515e-11
8.79324e-10
-9.32163e-11
9.23338e-10
-1.73359e-10
9.6845e-10
-2.56204e-10
1.01498e-09
-3.41816e-10
1.06319e-09
-4.29965e-10
1.11325e-09
-5.19903e-10
1.16509e-09
-6.10098e-10
1.21832e-09
-6.97934e-10
1.27202e-09
-7.79496e-10
1.3246e-09
-8.49571e-10
1.37375e-09
-9.02014e-10
1.41646e-09
-9.30543e-10
1.44926e-09
-9.29864e-10
1.46867e-09
-8.96845e-10
1.47163e-09
-8.31337e-10
1.45597e-09
-7.36397e-10
1.42063e-09
-6.17856e-10
1.36576e-09
-4.83412e-10
-3.41447e-10
1.29246e-09
1.59751e-11
1.31791e-10
4.99622e-11
3.21902e-10
9.32344e-11
4.55342e-10
1.40607e-10
5.45275e-10
1.89155e-10
6.01616e-10
2.3736e-10
6.31845e-10
2.84559e-10
6.41667e-10
3.30578e-10
6.35454e-10
3.75504e-10
6.16567e-10
4.19542e-10
5.87588e-10
4.62925e-10
5.50504e-10
5.05875e-10
5.06846e-10
5.48576e-10
4.57795e-10
5.9117e-10
4.04261e-10
6.33764e-10
3.46936e-10
6.76442e-10
2.8633e-10
7.19289e-10
2.2278e-10
7.62415e-10
1.5645e-10
8.06009e-10
8.72777e-11
8.50444e-10
1.48702e-11
8.95576e-10
-6.06838e-11
9.41202e-10
-1.38842e-10
9.87652e-10
-2.19809e-10
1.03524e-09
-3.03796e-10
1.0843e-09
-3.90871e-10
1.13509e-09
-4.80751e-10
1.18775e-09
-5.72567e-10
1.24219e-09
-6.64543e-10
1.29793e-09
-7.53666e-10
1.35387e-09
-8.35441e-10
1.4082e-09
-9.03903e-10
1.45825e-09
-9.5206e-10
1.50057e-09
-9.72862e-10
1.53125e-09
-9.60549e-10
1.54643e-09
-9.12021e-10
1.54284e-09
-8.27744e-10
1.51833e-09
-7.11885e-10
1.47213e-09
-5.71656e-10
1.40481e-09
-4.16098e-10
-2.54602e-10
1.31797e-09
1.52766e-11
1.16515e-10
4.86371e-11
2.88541e-10
9.19825e-11
4.11997e-10
1.40288e-10
4.96969e-10
1.90565e-10
5.51339e-10
2.41146e-10
5.81264e-10
2.91202e-10
5.91611e-10
3.40405e-10
5.86251e-10
3.88716e-10
5.68256e-10
4.36239e-10
5.40065e-10
4.83136e-10
5.03607e-10
5.29574e-10
4.60408e-10
5.75699e-10
4.1167e-10
6.21629e-10
3.58331e-10
6.67459e-10
3.01107e-10
7.13274e-10
2.40515e-10
7.59177e-10
1.76877e-10
8.0533e-10
1.10297e-10
8.52026e-10
4.05815e-11
8.99392e-10
-3.24957e-11
9.47098e-10
-1.0839e-10
9.95336e-10
-1.8708e-10
1.04439e-09
-2.68866e-10
1.09459e-09
-3.5399e-10
1.14622e-09
-4.42503e-10
1.19953e-09
-5.34065e-10
1.25463e-09
-6.27665e-10
1.31135e-09
-7.21265e-10
1.3691e-09
-8.11415e-10
1.42664e-09
-8.92977e-10
1.48187e-09
-9.59139e-10
1.53177e-09
-1.00196e-09
1.57243e-09
-1.01352e-09
1.59945e-09
-9.87571e-10
1.60855e-09
-9.21117e-10
1.59624e-09
-8.15437e-10
1.56044e-09
-6.7608e-10
1.50068e-09
-5.11896e-10
1.41796e-09
-3.33375e-10
-1.50728e-10
1.31408e-09
1.44373e-11
1.02077e-10
4.67311e-11
2.56248e-10
8.94849e-11
3.69243e-10
1.37928e-10
4.48526e-10
1.89092e-10
5.00176e-10
2.41219e-10
5.29136e-10
2.93353e-10
5.39477e-10
3.45037e-10
5.34567e-10
3.96116e-10
5.17177e-10
4.46599e-10
4.89581e-10
4.96573e-10
4.53632e-10
5.46148e-10
4.10833e-10
5.95429e-10
3.62389e-10
6.44506e-10
3.09254e-10
6.93462e-10
2.5215e-10
7.42389e-10
1.91587e-10
7.91421e-10
1.27845e-10
8.4078e-10
6.09386e-11
8.90784e-10
-9.4225e-12
9.41116e-10
-8.28282e-11
9.91704e-10
-1.58978e-10
1.0428e-09
-2.38175e-10
1.09467e-09
-3.20732e-10
1.14757e-09
-4.06892e-10
1.20175e-09
-4.96683e-10
1.25738e-09
-5.89703e-10
1.31452e-09
-6.84795e-10
1.3729e-09
-7.79647e-10
1.43183e-09
-8.70348e-10
1.48991e-09
-9.51058e-10
1.5448e-09
-1.01403e-09
1.59308e-09
-1.05024e-09
1.63036e-09
-1.0508e-09
1.65169e-09
-1.0089e-09
1.65232e-09
-9.21748e-10
1.62852e-09
-7.91639e-10
1.57824e-09
-6.25799e-10
1.50131e-09
-4.34964e-10
1.39895e-09
-2.31021e-10
-2.38596e-11
1.27209e-09
1.34851e-11
8.85923e-11
4.43252e-11
2.25408e-10
8.58755e-11
3.27693e-10
1.33701e-10
4.007e-10
1.84928e-10
4.48949e-10
2.37774e-10
4.76289e-10
2.912e-10
4.86052e-10
3.44648e-10
4.81118e-10
3.97868e-10
4.63957e-10
4.50784e-10
4.36666e-10
5.03411e-10
4.01006e-10
5.55803e-10
3.58441e-10
6.08025e-10
3.10167e-10
6.60145e-10
2.57134e-10
7.1224e-10
2.00055e-10
7.64422e-10
1.39405e-10
8.16882e-10
7.53853e-11
8.69964e-10
7.85668e-12
9.23443e-10
-6.29016e-11
9.77005e-10
-1.3639e-10
1.03083e-09
-2.12806e-10
1.08509e-09
-2.92432e-10
1.13994e-09
-3.75586e-10
1.19556e-09
-4.62506e-10
1.25208e-09
-5.53203e-10
1.30959e-09
-6.47211e-10
1.36803e-09
-7.4324e-10
1.42709e-09