/*--------------------------------*- C++ -*----------------------------------*\
  =========                 |
  \\      /  F ield         | OpenFOAM: The Open Source CFD Toolbox
   \\    /   O peration     | Website:  https://openfoam.org
    \\  /    A nd           | Version:  6
     \\/     M anipulation  |
\*---------------------------------------------------------------------------*/
FoamFile
{
    version     2.0;
    format      ascii;
    class       volScalarField;
    location    "30";
    object      source;
}
// * * * * * * * * * * * * * * * * * * * * * * * * * * * * * * * * * * * * * //

dimensions      [0 -3 0 0 0 1 0];

internalField   nonuniform List<scalar> 
8800
(
0.00162558
0.00162546
0.00162607
0.00162745
0.00162908
0.00163102
0.00163327
0.00163581
0.00163863
0.00164172
0.00164509
0.00164872
0.0016526
0.00165672
0.00166107
0.00166565
0.00167043
0.00167541
0.00168057
0.0016859
0.00169138
0.00169699
0.00170272
0.00170855
0.00171446
0.00172043
0.00172643
0.00173245
0.00173847
0.00174445
0.00175038
0.00175622
0.00176189
0.0017674
0.00177276
0.00177793
0.0017829
0.00178764
0.00179213
0.00179633
0.00137971
0.00137559
0.00137565
0.00137701
0.00137871
0.00138064
0.0013828
0.00138521
0.00138788
0.0013908
0.00139398
0.00139741
0.00140109
0.00140501
0.00140916
0.00141352
0.00141809
0.00142286
0.0014278
0.00143291
0.00143816
0.00144355
0.00144905
0.00145465
0.00146033
0.00146607
0.00147184
0.00147764
0.00148343
0.00148918
0.00149486
0.00150029
0.0015055
0.00151056
0.00151545
0.00152015
0.00152465
0.00152893
0.00153297
0.00153674
0.00116461
0.00115918
0.00115865
0.00115982
0.00116144
0.00116329
0.00116534
0.00116762
0.00117014
0.0011729
0.00117591
0.00117916
0.00118265
0.00118636
0.0011903
0.00119445
0.0011988
0.00120332
0.00120802
0.00121286
0.00121784
0.00122294
0.00122814
0.00123342
0.00123877
0.00124417
0.00124959
0.00125502
0.00126043
0.00126575
0.00127078
0.00127546
0.00128
0.00128438
0.00128859
0.00129262
0.00129645
0.00130007
0.00130347
0.00130662
0.000978071
0.000973421
0.000972782
0.000973701
0.000975114
0.000976797
0.000978705
0.000980836
0.000983196
0.00098579
0.000988619
0.00099168
0.000994965
0.000998467
0.00100217
0.00100607
0.00101014
0.00101437
0.00101875
0.00102325
0.00102785
0.00103255
0.00103732
0.00104215
0.00104702
0.00105192
0.00105681
0.00106168
0.00106646
0.00107097
0.0010749
0.00107873
0.00108242
0.00108595
0.00108932
0.00109251
0.00109552
0.00109835
0.00110098
0.00110339
0.000818373
0.00081528
0.000814891
0.000815667
0.000816882
0.000818378
0.000820112
0.000822074
0.000824261
0.000826672
0.000829305
0.000832153
0.000835206
0.000838452
0.000841876
0.000845461
0.00084919
0.000853043
0.000857002
0.000861049
0.000865165
0.000869334
0.000873541
0.000877769
0.000882005
0.000886228
0.000890408
0.000894479
0.000898291
0.000901474
0.000904453
0.000907331
0.000910063
0.000912646
0.000915085
0.000917377
0.000919519
0.000921503
0.00092332
0.000924964
0.000682912
0.000681699
0.000681753
0.000682492
0.000683552
0.00068487
0.000686424
0.000688202
0.000690198
0.000692404
0.000694813
0.000697413
0.000700191
0.000703131
0.000706214
0.00070942
0.000712729
0.000716119
0.000719572
0.000723067
0.000726588
0.000730119
0.000733645
0.000737152
0.000740623
0.00074403
0.000747317
0.000750366
0.000752907
0.000754889
0.000756884
0.00075877
0.000760529
0.000762168
0.000763695
0.000765111
0.000766412
0.00076759
0.000768638
0.000769546
0.000568754
0.000569576
0.000570161
0.000570924
0.000571863
0.000573016
0.000574389
0.000575974
0.000577762
0.00057974
0.000581896
0.000584215
0.000586678
0.000589265
0.000591955
0.000594725
0.000597552
0.000600416
0.000603294
0.00060617
0.000609025
0.000611846
0.000614619
0.000617329
0.000619954
0.00062245
0.000624734
0.000626629
0.000627781
0.00062884
0.000629883
0.00063083
0.000631684
0.000632457
0.00063316
0.000633796
0.000634358
0.000634837
0.00063522
0.000635497
0.000473025
0.000475884
0.000477017
0.000477832
0.000478671
0.00047967
0.000480864
0.000482251
0.000483819
0.000485553
0.000487435
0.000489446
0.000491565
0.000493769
0.000496033
0.000498333
0.000500647
0.000502951
0.000505225
0.000507453
0.000509617
0.000511706
0.000513706
0.000515598
0.000517354
0.000518912
0.000520151
0.000520835
0.000520946
0.000521166
0.000521354
0.000521476
0.000521545
0.000521583
0.000521602
0.000521603
0.000521577
0.000521508
0.000521377
0.000521166
0.000393039
0.000397803
0.00039946
0.000400334
0.000401085
0.000401939
0.000402959
0.000404147
0.000405491
0.000406973
0.000408573
0.000410267
0.000412032
0.000413843
0.000415674
0.000417501
0.000419299
0.000421048
0.000422728
0.000424322
0.000425816
0.000427198
0.000428454
0.000429564
0.000430488
0.000431148
0.000431391
0.000430946
0.000430377
0.000429874
0.000429346
0.000428788
0.000428226
0.000427686
0.000427184
0.000426721
0.00042628
0.000425835
0.000425359
0.000424824
0.000326366
0.000332809
0.000334942
0.000335873
0.000336542
0.000337261
0.000338113
0.000339109
0.000340234
0.000341469
0.000342791
0.000344175
0.000345595
0.000347027
0.000348443
0.00034982
0.000351133
0.000352364
0.000353493
0.000354505
0.000355388
0.00035613
0.000356717
0.000357126
0.00035731
0.000357184
0.000356595
0.000355303
0.000354183
0.000353098
0.000352007
0.000350928
0.000349895
0.000348942
0.000348087
0.00034733
0.000346646
0.000345999
0.000345346
0.000344651
0.000270865
0.000278708
0.000281258
0.000282239
0.000282833
0.000283425
0.000284122
0.000284937
0.000285857
0.000286861
0.000287923
0.000289019
0.000290122
0.000291207
0.000292247
0.00029322
0.000294103
0.000294878
0.000295527
0.000296037
0.000296396
0.000296594
0.000296615
0.000296435
0.000296001
0.000295209
0.000293848
0.000292147
0.000290603
0.000289083
0.000287583
0.000286135
0.000284786
0.000283572
0.000282518
0.000281624
0.000280854
0.000280161
0.000279485
0.000278776
0.000224692
0.000233631
0.000236535
0.000237561
0.000238088
0.000238566
0.000239121
0.000239774
0.000240509
0.000241306
0.000242138
0.00024298
0.000243806
0.00024459
0.000245309
0.00024594
0.000246463
0.00024686
0.000247117
0.000247221
0.000247161
0.000246927
0.000246504
0.000245867
0.000244958
0.000243664
0.000241765
0.000239835
0.000238
0.000236186
0.000234417
0.000232741
0.000231211
0.000229869
0.000228749
0.000227849
0.000227126
0.000226517
0.000225944
0.000225347
0.000186282
0.000196011
0.000199209
0.000200276
0.000200746
0.000201124
0.000201557
0.000202068
0.000202644
0.000203264
0.000203902
0.000204532
0.000205129
0.000205669
0.000206129
0.000206489
0.00020673
0.000206837
0.000206796
0.000206596
0.000206228
0.000205682
0.000204943
0.000203985
0.000202754
0.000201143
0.00019893
0.000196867
0.000194865
0.000192884
0.000190971
0.000189186
0.000187591
0.000186233
0.000185153
0.000184354
0.000183782
0.000183359
0.000182985
0.000182598
0.000154324
0.000164549
0.000167985
0.000169093
0.000169516
0.000169811
0.000170141
0.000170535
0.000170981
0.000171458
0.000171941
0.000172404
0.000172824
0.000173179
0.000173446
0.000173608
0.000173648
0.000173553
0.000173309
0.000172908
0.00017234
0.000171597
0.000170665
0.000169517
0.000168097
0.000166249
0.000163984
0.000161885
0.000159827
0.000157787
0.000155834
0.000154042
0.00015248
0.000151193
0.000150235
0.000149622
0.000149282
0.000149121
0.000149003
0.000148904
0.000127732
0.000138173
0.000141796
0.000142947
0.000143338
0.000143567
0.000143815
0.000144116
0.000144462
0.00014483
0.000145198
0.000145541
0.000145836
0.000146063
0.000146203
0.000146238
0.000146154
0.000145939
0.000145582
0.000145074
0.000144408
0.000143575
0.000142561
0.000141343
0.000139853
0.000137872
0.000135716
0.00013367
0.000131651
0.000129641
0.000127734
0.000126021
0.000124574
0.00012341
0.000122628
0.000122279
0.000122247
0.000122425
0.000122676
0.000122905
0.000105631
0.000115992
0.000119762
0.000120967
0.00012134
0.00012152
0.000121706
0.00012194
0.000122214
0.000122508
0.000122799
0.000123066
0.000123286
0.00012344
0.000123512
0.000123485
0.000123347
0.000123088
0.000122698
0.000122168
0.000121493
0.000120662
0.000119666
0.00011848
0.000117038
0.000115053
0.000113063
0.000111142
0.000109241
0.000107292
0.000105488
0.000103933
0.000102684
0.000101792
0.000101317
0.000101282
0.000101598
0.000102147
0.000102779
0.000103369
8.7285e-05
9.73087e-05
0.000101153
0.000102425
0.000102807
0.000102957
0.000103102
0.00010329
0.000103519
0.00010377
0.000104021
0.000104251
0.00010444
0.000104571
0.000104629
0.000104597
0.000104467
0.000104229
0.000103875
0.000103396
0.000102786
0.000102037
0.00010114
0.000100074
9.86666e-05
9.6816e-05
9.50314e-05
9.32939e-05
9.15748e-05
8.98648e-05
8.82889e-05
8.69622e-05
8.59748e-05
8.53908e-05
8.52635e-05
8.56e-05
8.63157e-05
8.72797e-05
8.83286e-05
8.93116e-05
7.20692e-05
8.15615e-05
8.53933e-05
8.67251e-05
8.71363e-05
8.72859e-05
8.74128e-05
8.75798e-05
8.77895e-05
8.80226e-05
8.82618e-05
8.8491e-05
8.86888e-05
8.88394e-05
8.89286e-05
8.89335e-05
8.88563e-05
8.86887e-05
8.84207e-05
8.80453e-05
8.75559e-05
8.6945e-05
8.62026e-05
8.53113e-05
8.4048e-05
8.25008e-05
8.09753e-05
7.94762e-05
7.7996e-05
7.65487e-05
7.52466e-05
7.42136e-05
7.35561e-05
7.33499e-05
7.36411e-05
7.44222e-05
7.5603e-05
7.70383e-05
7.85491e-05
7.99624e-05
5.94637e-05
6.82805e-05
7.20224e-05
7.33958e-05
7.38459e-05
7.40118e-05
7.41401e-05
7.43054e-05
7.45166e-05
7.4759e-05
7.50161e-05
7.52718e-05
7.55079e-05
7.57097e-05
7.58649e-05
7.59566e-05
7.59821e-05
7.59345e-05
7.58056e-05
7.55887e-05
7.52772e-05
7.48634e-05
7.43374e-05
7.36828e-05
7.26258e-05
7.14116e-05
7.01823e-05
6.89624e-05
6.77651e-05
6.66267e-05
6.56555e-05
6.49837e-05
6.47321e-05
6.49863e-05
6.57857e-05
6.71051e-05
6.88397e-05
7.08245e-05
7.28619e-05
7.47579e-05
4.90354e-05
5.7077e-05
6.06609e-05
6.20538e-05
6.25465e-05
6.27424e-05
6.28897e-05
6.30716e-05
6.33036e-05
6.35758e-05
6.38734e-05
6.41819e-05
6.44852e-05
6.477e-05
6.50252e-05
6.52372e-05
6.54015e-05
6.55122e-05
6.5562e-05
6.55444e-05
6.54524e-05
6.52783e-05
6.5012e-05
6.45898e-05
6.3849e-05
6.29853e-05
6.2083e-05
6.11774e-05
6.03023e-05
5.95162e-05
5.89336e-05
5.86971e-05
5.89411e-05
5.97591e-05
6.11818e-05
6.31623e-05
6.55705e-05
6.8214e-05
7.08705e-05
7.33249e-05
4.04232e-05
4.76296e-05
5.09982e-05
5.23858e-05
5.29193e-05
5.31552e-05
5.3336e-05
5.35505e-05
5.38203e-05
5.41401e-05
5.44978e-05
5.48805e-05
5.52741e-05
5.56668e-05
5.60485e-05
5.64077e-05
5.67393e-05
5.70379e-05
5.72969e-05
5.75098e-05
5.76695e-05
5.77678e-05
5.77935e-05
5.76234e-05
5.7244e-05
5.675e-05
5.62013e-05
5.56428e-05
5.51284e-05
5.47408e-05
5.46105e-05
5.48956e-05
5.57448e-05
5.72572e-05
5.94517e-05
6.22527e-05
6.54936e-05
6.89441e-05
7.23491e-05
7.54696e-05
3.33253e-05
3.9671e-05
4.27789e-05
4.41353e-05
4.47038e-05
4.49853e-05
4.52104e-05
4.54706e-05
4.57923e-05
4.61747e-05
4.66085e-05
4.70825e-05
4.75847e-05
4.81045e-05
4.86329e-05
4.91602e-05
4.96809e-05
5.019e-05
5.06813e-05
5.11484e-05
5.15844e-05
5.19807e-05
5.23121e-05
5.24423e-05
5.24302e-05
5.23167e-05
5.21444e-05
5.19649e-05
5.18523e-05
5.19171e-05
5.23144e-05
5.32254e-05
5.48157e-05
5.71881e-05
6.03443e-05
6.41709e-05
6.84518e-05
7.29059e-05
7.72353e-05
8.11721e-05
2.74886e-05
3.29775e-05
3.57916e-05
3.70923e-05
3.76863e-05
3.80148e-05
3.82916e-05
3.86074e-05
3.89922e-05
3.94491e-05
3.99715e-05
4.05502e-05
4.11749e-05
4.18365e-05
4.25268e-05
4.32376e-05
4.39636e-05
4.46997e-05
4.54405e-05
4.61799e-05
4.69108e-05
4.76243e-05
4.82569e-05
4.87265e-05
4.90894e-05
4.9366e-05
4.95906e-05
4.98229e-05
5.01588e-05
5.07409e-05
5.17588e-05
5.34248e-05
5.59264e-05
5.9368e-05
6.37271e-05
6.88408e-05
7.44283e-05
8.01425e-05
8.56307e-05
9.05888e-05
2.27003e-05
2.73608e-05
2.98604e-05
3.10833e-05
3.16914e-05
3.20649e-05
3.23973e-05
3.27755e-05
3.32318e-05
3.37722e-05
3.43928e-05
3.50861e-05
3.58436e-05
3.66574e-05
3.75206e-05
3.84261e-05
3.93688e-05
4.0344e-05
4.13468e-05
4.23717e-05
4.3412e-05
4.44529e-05
4.53884e-05
4.62152e-05
4.696e-05
4.76364e-05
4.82785e-05
4.89577e-05
4.97964e-05
5.09758e-05
5.273e-05
5.5313e-05
5.89392e-05
6.37137e-05
6.9581e-05
7.63134e-05
8.35478e-05
9.08538e-05
9.78096e-05
0.000104066
1.87816e-05
2.26612e-05
2.48373e-05
2.59643e-05
2.65744e-05
2.69883e-05
2.73772e-05
2.78219e-05
2.83553e-05
2.89856e-05
2.97111e-05
3.05261e-05
3.14237e-05
3.23973e-05
3.34408e-05
3.45486e-05
3.57159e-05
3.69386e-05
3.82124e-05
3.95325e-05
4.08931e-05
4.22571e-05
4.35096e-05
4.46973e-05
4.58286e-05
4.69148e-05
4.79961e-05
4.91617e-05
5.05672e-05
5.24418e-05
5.50766e-05
5.8779e-05
6.37976e-05
7.0237e-05
7.79972e-05
8.67684e-05
9.60837e-05
0.000105409
0.000114238
0.000122164
1.55817e-05
1.87421e-05
2.05967e-05
2.16147e-05
2.22152e-05
2.26636e-05
2.31075e-05
2.36204e-05
2.42342e-05
2.49587e-05
2.57936e-05
2.67351e-05
2.77776e-05
2.89158e-05
3.01448e-05
3.14598e-05
3.28568e-05
3.43325e-05
3.58836e-05
3.75063e-05
3.91931e-05
4.08477e-05
4.24398e-05
4.39953e-05
4.55189e-05
4.70266e-05
4.85714e-05
5.02684e-05
5.23161e-05
5.50051e-05
5.86985e-05
6.37723e-05
7.05185e-05
7.90393e-05
8.91776e-05
0.00010052
0.000112471
0.00012437
0.000135609
0.000145706
1.29735e-05
1.5486e-05
1.7031e-05
1.79324e-05
1.85135e-05
1.89898e-05
1.9486e-05
2.00672e-05
2.07631e-05
2.15841e-05
2.25315e-05
2.36026e-05
2.47932e-05
2.60991e-05
2.75165e-05
2.90418e-05
3.06718e-05
3.2404e-05
3.42368e-05
3.61667e-05
3.81676e-05
4.01108e-05
4.20413e-05
4.39654e-05
4.58861e-05
4.78279e-05
4.98633e-05
5.21427e-05
5.49212e-05
5.85675e-05
6.35373e-05
7.02941e-05
7.91846e-05
9.03081e-05
0.000103436
0.000118025
0.000133325
0.000148524
0.000162885
0.000175835
1.085e-05
1.27917e-05
1.40471e-05
1.48299e-05
1.53848e-05
1.58832e-05
1.64286e-05
1.70771e-05
1.78556e-05
1.87747e-05
1.98365e-05
2.10393e-05
2.23801e-05
2.38558e-05
2.54636e-05
2.7201e-05
2.90659e-05
3.10569e-05
3.31742e-05
3.54226e-05
3.76728e-05
3.99228e-05
4.21939e-05
4.44869e-05
4.68087e-05
4.91975e-05
5.17528e-05
5.46721e-05
5.82836e-05
6.30568e-05
6.95658e-05
7.83862e-05
8.99361e-05
0.000104313
0.000121199
0.000139899
0.000159473
0.000178929
0.000197378
0.000214117
9.1213e-06
1.05713e-05
1.15638e-05
1.22319e-05
1.2757e-05
1.32736e-05
1.38656e-05
1.45806e-05
1.54423e-05
1.64608e-05
1.76387e-05
1.89751e-05
2.04678e-05
2.21149e-05
2.39147e-05
2.58655e-05
2.79665e-05
3.0217e-05
3.26215e-05
3.51312e-05
3.76395e-05
4.01941e-05
4.2801e-05
4.54592e-05
4.81833e-05
5.10303e-05
5.41356e-05
5.77575e-05
6.23181e-05
6.84156e-05
7.67759e-05
8.81198e-05
0.00010296
0.000121396
0.00014301
0.000166924
0.000191982
0.000216978
0.000240838
0.000262676
7.71197e-06
8.74841e-06
9.50977e-06
1.00724e-05
1.05685e-05
1.11018e-05
1.17397e-05
1.25215e-05
1.34678e-05
1.45877e-05
1.5884e-05
1.73564e-05
1.90033e-05
2.08239e-05
2.28172e-05
2.49827e-05
2.73205e-05
2.98304e-05
3.25253e-05
3.52245e-05
3.79942e-05
4.0847e-05
4.37801e-05
4.6795e-05
4.99182e-05
5.32313e-05
5.69151e-05
6.13052e-05
6.69425e-05
7.45889e-05
8.51646e-05
9.95785e-05
0.000118471
0.000141959
0.000169518
0.000200065
0.000232203
0.00026448
0.0002956
0.000324139
6.55908e-06
7.25697e-06
7.82236e-06
8.29368e-06
8.76593e-06
9.31813e-06
1.00037e-05
1.08549e-05
1.18889e-05
1.31139e-05
1.45327e-05
1.61449e-05
1.79494e-05
1.99464e-05
2.21357e-05
2.45172e-05
2.70926e-05
2.98897e-05
3.27284e-05
3.56494e-05
3.86786e-05
4.18166e-05
4.50598e-05
4.84167e-05
5.19291e-05
5.57096e-05
5.99957e-05
6.52188e-05
7.20681e-05
8.15113e-05
9.47159e-05
0.000112836
0.000136688
0.000166437
0.00020146
0.000240467
0.000281811
0.000323765
0.000364638
0.000400713
5.61036e-06
6.03978e-06
6.44642e-06
6.84503e-06
7.30309e-06
7.88055e-06
8.61941e-06
9.54557e-06
1.06734e-05
1.20101e-05
1.35578e-05
1.53158e-05
1.72831e-05
1.9461e-05
2.18496e-05
2.44489e-05
2.72888e-05
3.02187e-05
3.32324e-05
3.63725e-05
3.96451e-05
4.30464e-05
4.65761e-05
5.02517e-05
5.41345e-05
5.83746e-05
6.32777e-05
6.9392e-05
7.7589e-05
8.90912e-05
0.000105378
0.000127923
0.00015779
0.000195249
0.000239618
0.000289436
0.000342839
0.00039782
0.000451142
0.000496479
4.82273e-06
5.04768e-06
5.33361e-06
5.68184e-06
6.14011e-06
6.75385e-06
7.55595e-06
8.56705e-06
9.79873e-06
1.12571e-05
1.29436e-05
1.48564e-05
1.69939e-05
1.93591e-05
2.19514e-05
2.48038e-05
2.77687e-05
3.08222e-05
3.4016e-05
3.73593e-05
4.085e-05
4.44848e-05
4.82684e-05
5.22296e-05
5.64527e-05
6.11315e-05
6.66526e-05
7.37026e-05
8.3372e-05
9.71941e-05
0.000117037
0.000144787
0.000181857
0.000228719
0.000284733
0.000348368
0.000417681
0.000490278
0.00055793
0.000616527
4.161e-06
4.23875e-06
4.44192e-06
4.76529e-06
5.24277e-06
5.90889e-06
6.78936e-06
7.9003e-06
9.25053e-06
1.08452e-05
1.26842e-05
1.47644e-05
1.70816e-05
1.96423e-05
2.24901e-05
2.54422e-05
2.84933e-05
3.16951e-05
3.50569e-05
3.85772e-05
4.22524e-05
4.6082e-05
5.00772e-05
5.42798e-05
5.87997e-05
6.38803e-05
7.00007e-05
7.80077e-05
8.92481e-05
0.000105626
0.000129484
0.000163236
0.000208781
0.000266959
0.000337354
0.000418606
0.000508869
0.000602535
0.000690475
0.00076767
3.59676e-06
3.57774e-06
3.73534e-06
4.0621e-06
4.58226e-06
5.32219e-06
6.30177e-06
7.53303e-06
9.02178e-06
1.07721e-05
1.27821e-05
1.50456e-05
1.75555e-05
2.03898e-05
2.32901e-05
2.63093e-05
2.94871e-05
3.28286e-05
3.63319e-05
3.99937e-05
4.38116e-05
4.77887e-05
5.19433e-05
5.63309e-05
6.1089e-05
6.65153e-05
7.31909e-05
8.21422e-05
9.50067e-05
0.000114117
0.000142383
0.000182873
0.000238158
0.00030968
0.000397578
0.000501136
0.00061849
0.000738545
0.000855105
0.000957829
3.10749e-06
3.03556e-06
3.18372e-06
3.54448e-06
4.13512e-06
4.97565e-06
6.08097e-06
7.45899e-06
9.11168e-06
1.10422e-05
1.32458e-05
1.57384e-05
1.85257e-05
2.13462e-05
2.43174e-05
2.74528e-05
3.07502e-05
3.42054e-05
3.78147e-05
4.15751e-05
4.54865e-05
4.95554e-05
5.3807e-05
5.83108e-05
6.32327e-05
6.89271e-05
7.60834e-05
8.59211e-05
0.000100396
0.000122317
0.000155243
0.000203036
0.000269147
0.000355947
0.000464638
0.00059599
0.000744294
0.000901736
0.00105763
0.00119642
2.67573e-06
2.58891e-06
2.7627e-06
3.19022e-06
3.88336e-06
4.85665e-06
6.12019e-06
7.67739e-06
9.52463e-06
1.16645e-05
1.41492e-05
1.68427e-05
1.96151e-05
2.2543e-05
2.56323e-05
2.88764e-05
3.22683e-05
3.58029e-05
3.94763e-05
4.32867e-05
4.72354e-05
5.13325e-05
5.56094e-05
6.0149e-05
6.51445e-05
7.10071e-05
7.85355e-05
8.9148e-05
0.000105131
0.0001298
0.000167418
0.000222751
0.000300344
0.000403875
0.000536143
0.00069924
0.000886547
0.00109236
0.00130066
0.00150171
2.28848e-06
2.22002e-06
2.45376e-06
2.983e-06
3.81471e-06
4.95809e-06
6.418e-06
8.19256e-06
1.02766e-05
1.27589e-05
1.53575e-05
1.80906e-05
2.09884e-05
2.40409e-05
2.72368e-05
3.05661e-05
3.40208e-05
3.75954e-05
4.12864e-05
4.50926e-05
4.90169e-05
5.30718e-05
5.72944e-05
6.17789e-05
6.6744e-05
7.26535e-05
8.04114e-05
9.16286e-05
0.000108916
0.000136091
0.000178129
0.000240742
0.000329705
0.00045039
0.000608249
0.00080369
0.00103878
0.00130049
0.00159225
0.00189845
1.93662e-06
1.91641e-06
2.2443e-06
2.91262e-06
3.92301e-06
5.27874e-06
6.97849e-06
9.05386e-06
1.14982e-05
1.40271e-05
1.67431e-05
1.96303e-05
2.26669e-05
2.58337e-05
2.9116e-05
3.25023e-05
3.5984e-05
3.95555e-05
4.32134e-05
4.69571e-05
5.07904e-05
5.47279e-05
5.88105e-05
6.31417e-05
6.79613e-05
7.37795e-05
8.15941e-05
9.31903e-05
0.000111475
0.000140721
0.000186549
0.000255542
0.00035462
0.000490658
0.000671009
0.000898913
0.00118343
0.00151537
0.00192769
0.00242212
1.61443e-06
1.67063e-06
2.12767e-06
2.97522e-06
4.2085e-06
5.82368e-06
7.87858e-06
1.02541e-05
1.27869e-05
1.55182e-05
1.8424e-05
2.14741e-05
2.46423e-05
2.79069e-05
3.12513e-05
3.46628e-05
3.81324e-05
4.16542e-05
4.52251e-05
4.88449e-05
5.25179e-05
5.62596e-05
6.01134e-05
6.41891e-05
6.87422e-05
7.432e-05
8.19973e-05
9.37042e-05
0.000112591
0.000143297
0.000191947
0.000265769
0.000372542
0.000520492
0.000716306
0.000970366
0.00129452
0.00170445
0.00227597
0.00311066
0.00180024
0.00180382
0.00180706
0.00180994
0.00181244
0.00181454
0.00181624
0.00181753
0.00181842
0.00181896
0.00181896
0.00181842
0.00181753
0.00181624
0.00181454
0.00181244
0.00180994
0.00180706
0.00180382
0.00180024
0.00154023
0.00154341
0.00154629
0.00154883
0.00155103
0.00155288
0.00155437
0.0015555
0.00155628
0.00155674
0.00155674
0.00155628
0.0015555
0.00155437
0.00155288
0.00155103
0.00154883
0.00154629
0.00154341
0.00154023
0.00130952
0.00131215
0.00131451
0.00131658
0.00131836
0.00131985
0.00132104
0.00132193
0.00132253
0.00132287
0.00132287
0.00132253
0.00132193
0.00132104
0.00131985
0.00131836
0.00131658
0.00131451
0.00131215
0.00130952
0.00110559
0.00110757
0.00110931
0.00111082
0.0011121
0.00111315
0.00111397
0.00111458
0.00111498
0.00111518
0.00111518
0.00111498
0.00111458
0.00111397
0.00111315
0.0011121
0.00111082
0.00110931
0.00110757
0.00110559
0.000926426
0.000927704
0.000928799
0.000929716
0.000930463
0.000931051
0.000931488
0.000931786
0.000931958
0.000932028
0.000932028
0.000931958
0.000931786
0.000931488
0.000931051
0.000930463
0.000929716
0.000928799
0.000927704
0.000926426
0.00077031
0.000770927
0.000771404
0.00077175
0.000771982
0.000772118
0.000772177
0.000772173
0.000772125
0.00077206
0.00077206
0.000772125
0.000772173
0.000772177
0.000772118
0.000771982
0.00077175
0.000771404
0.000770927
0.00077031
0.000635658
0.000635702
0.000635638
0.00063548
0.000635252
0.000634983
0.000634698
0.000634422
0.000634176
0.000633991
0.000633991
0.000634176
0.000634422
0.000634698
0.000634983
0.000635252
0.00063548
0.000635638
0.000635702
0.000635658
0.00052086
0.000520455
0.000519959
0.000519392
0.000518785
0.000518176
0.000517603
0.000517097
0.000516685
0.000516404
0.000516404
0.000516685
0.000517097
0.000517603
0.000518176
0.000518785
0.000519392
0.000519959
0.000520455
0.00052086
0.000424205
0.000423491
0.000422689
0.000421821
0.000420928
0.000420057
0.000419256
0.000418568
0.000418028
0.000417672
0.000417672
0.000418028
0.000418568
0.000419256
0.000420057
0.000420928
0.000421821
0.000422689
0.000423491
0.000424205
0.000343872
0.00034299
0.000342008
0.00034095
0.000339863
0.000338807
0.000337841
0.000337019
0.000336384
0.000335977
0.000335977
0.000336384
0.000337019
0.000337841
0.000338807
0.000339863
0.00034095
0.000342008
0.00034299
0.000343872
0.000277977
0.000277057
0.00027601
0.000274864
0.000273669
0.000272498
0.000271423
0.00027051
0.00026981
0.000269368
0.000269368
0.00026981
0.00027051
0.000271423
0.000272498
0.000273669
0.000274864
0.00027601
0.000277057
0.000277977
0.000224646
0.000223796
0.000222785
0.000221636
0.000220409
0.000219184
0.000218048
0.00021708
0.000216339
0.000215876
0.000215876
0.000216339
0.00021708
0.000218048
0.000219184
0.000220409
0.000221636
0.000222785
0.000223796
0.000224646
0.000182088
0.000181397
0.000180502
0.000179424
0.000178225
0.000176998
0.000175842
0.000174847
0.000174083
0.000173605
0.000173605
0.000174083
0.000174847
0.000175842
0.000176998
0.000178225
0.000179424
0.000180502
0.000181397
0.000182088
0.000148663
0.000148202
0.000147489
0.000146542
0.000145425
0.000144239
0.000143094
0.000142094
0.000141317
0.000140826
0.000140826
0.000141317
0.000142094
0.000143094
0.000144239
0.000145425
0.000146542
0.000147489
0.000148202
0.000148663
0.00012297
0.000122778
0.000122286
0.000121507
0.000120507
0.000119394
0.000118289
0.000117303
0.000116524
0.000116022
0.000116022
0.000116524
0.000117303
0.000118289
0.000119394
0.000120507
0.000121507
0.000122286
0.000122778
0.00012297
0.000103771
0.000103876
0.000103634
0.000103053
0.000102202
0.000101193
0.000100153
9.92018e-05
9.8435e-05
9.79266e-05
9.79266e-05
9.8435e-05
9.92018e-05
0.000100153
0.000101193
0.000102202
0.000103053
0.000103634
0.000103876
0.000103771
9.00744e-05
9.05005e-05
9.05313e-05
9.0174e-05
8.94972e-05
8.86192e-05
8.76711e-05
8.67776e-05
8.60373e-05
8.55294e-05
8.55294e-05
8.60373e-05
8.67776e-05
8.76711e-05
8.86192e-05
8.94972e-05
9.0174e-05
9.05313e-05
9.05005e-05
9.00743e-05
8.11153e-05
8.18854e-05
8.22111e-05
8.21005e-05
8.16251e-05
8.09077e-05
8.00804e-05
7.92689e-05
7.85727e-05
7.8074e-05
7.8074e-05
7.85727e-05
7.92689e-05
8.00803e-05
8.09077e-05
8.16251e-05
8.21005e-05
8.22111e-05
8.18854e-05
8.11153e-05
7.63407e-05
7.74852e-05
7.81324e-05
7.82959e-05
7.80523e-05
7.75294e-05
7.68568e-05
7.61571e-05
7.55266e-05
7.50484e-05
7.50484e-05
7.55266e-05
7.61571e-05
7.68568e-05
7.75294e-05
7.80523e-05
7.82959e-05
7.81324e-05
7.74852e-05
7.63407e-05
7.5396e-05
7.69602e-05
7.7967e-05
7.84414e-05
7.84689e-05
7.81836e-05
7.77077e-05
7.71567e-05
7.66191e-05
7.6176e-05
7.6176e-05
7.66191e-05
7.71567e-05
7.77077e-05
7.81836e-05
7.84689e-05
7.84414e-05
7.7967e-05
7.69602e-05
7.5396e-05
7.81151e-05
8.01671e-05
8.15907e-05
8.24297e-05
8.27827e-05
8.27922e-05
8.25676e-05
8.22124e-05
8.18021e-05
8.1413e-05
8.1413e-05
8.18021e-05
8.22124e-05
8.25676e-05
8.27922e-05
8.27827e-05
8.24297e-05
8.15907e-05
8.01671e-05
7.81151e-05
8.45156e-05
8.71567e-05
8.90834e-05
9.03667e-05
9.11224e-05
9.15054e-05
9.16042e-05
9.15051e-05
9.12649e-05
9.09532e-05
9.09532e-05
9.12649e-05
9.15051e-05
9.16041e-05
9.15054e-05
9.11224e-05
9.03667e-05
8.90834e-05
8.71567e-05
8.45156e-05
9.48046e-05
9.81819e-05
0.00010074
0.000102585
0.000103855
0.000104719
0.000105238
0.00010544
0.000105354
0.000105104
0.000105104
0.000105354
0.00010544
0.000105238
0.000104719
0.000103855
0.000102585
0.00010074
9.81819e-05
9.48046e-05
0.000109396
0.000113719
0.000117096
0.000119676
0.000121621
0.000122955
0.000123836
0.000124317
0.000124409
0.000124242
0.000124242
0.000124409
0.000124317
0.000123836
0.000122955
0.000121621
0.000119676
0.000117096
0.000113719
0.000109395
0.000128942
0.00013451
0.000138976
0.000142445
0.000145035
0.000146825
0.000148099
0.000148926
0.000149295
0.00014927
0.00014927
0.000149295
0.000148926
0.000148099
0.000146825
0.000145035
0.000142445
0.000138976
0.00013451
0.000128942
0.00015439
0.000161623
0.000167427
0.000171775
0.000174956
0.000177469
0.000179413
0.00018076
0.000181476
0.000181626
0.000181626
0.000181476
0.00018076
0.000179413
0.000177469
0.000174956
0.000171775
0.000167427
0.000161623
0.00015439
0.000187062
0.00019643
0.0002036
0.000208918
0.000213148
0.000216636
0.000219403
0.000221371
0.000222493
0.00022285
0.00022285
0.000222493
0.000221371
0.000219403
0.000216636
0.000213148
0.000208918
0.0002036
0.00019643
0.000187062
0.00022872
0.000240433
0.000249119
0.000255956
0.000261597
0.000266296
0.000270027
0.000272696
0.000274273
0.000274863
0.000274863
0.000274273
0.000272696
0.000270027
0.000266296
0.000261597
0.000255956
0.000249119
0.000240433
0.00022872
0.000281392
0.000295537
0.000306473
0.000315362
0.000322766
0.00032888
0.000333673
0.000337084
0.000339131
0.000339965
0.000339965
0.000339131
0.000337084
0.000333673
0.00032888
0.000322765
0.000315362
0.000306473
0.000295537
0.000281392
0.000347054
0.000364739
0.000378716
0.0003902
0.000399654
0.000407289
0.000413139
0.000417244
0.000419716
0.000420768
0.000420768
0.000419716
0.000417244
0.000413139
0.000407289
0.000399654
0.0003902
0.000378716
0.000364739
0.000347054
0.000429417
0.000451821
0.000469655
0.000484174
0.000495769
0.000504811
0.000511518
0.000516114
0.000518856
0.000520048
0.000520048
0.000518856
0.000516114
0.000511518
0.000504811
0.000495769
0.000484174
0.000469655
0.000451821
0.000429417
0.000533014
0.000561507
0.000583898
0.00060157
0.000614984
0.00062493
0.000631969
0.000636613
0.000639316
0.00064049
0.00064049
0.000639316
0.000636613
0.000631969
0.00062493
0.000614984
0.00060157
0.000583898
0.000561507
0.000533014
0.000663672
0.000699663
0.000726826
0.000747003
0.000761255
0.000771019
0.000777402
0.000781316
0.000783461
0.000784357
0.000784357
0.000783461
0.000781316
0.000777402
0.000771019
0.000761255
0.000747003
0.000726826
0.000699663
0.000663672
0.00082873
0.000873218
0.000904466
0.000925272
0.000938311
0.000945951
0.000950088
0.000952095
0.000952906
0.000953136
0.000953136
0.000952906
0.000952095
0.000950088
0.000945951
0.000938311
0.000925272
0.000904466
0.000873218
0.00082873
0.00103748
0.00109089
0.00112367
0.0011413
0.00114926
0.00115164
0.0011512
0.00114969
0.00114818
0.00114727
0.00114727
0.00114818
0.00114969
0.0011512
0.00115164
0.00114926
0.0011413
0.00112367
0.00109089
0.00103748
0.00130467
0.00136517
0.00139218
0.00139899
0.00139572
0.00138843
0.00138046
0.00137356
0.00136862
0.00136607
0.00136607
0.00136862
0.00137356
0.00138046
0.00138843
0.00139572
0.00139899
0.00139218
0.00136517
0.00130467
0.0016559
0.00171318
0.00171786
0.00170048
0.00167711
0.00165474
0.00163606
0.00162195
0.0016126
0.00160799
0.00160799
0.0016126
0.00162195
0.00163606
0.00165474
0.00167711
0.00170048
0.00171786
0.00171318
0.0016559
0.00214552
0.00216119
0.00210688
0.0020438
0.0019894
0.00194665
0.00191477
0.0018923
0.00187803
0.00187116
0.00187116
0.00187803
0.0018923
0.00191477
0.00194665
0.0019894
0.0020438
0.00210688
0.00216119
0.00214552
0.00293212
0.00274461
0.00255424
0.00241776
0.00232335
0.00225782
0.00221244
0.0021819
0.00216305
0.00215416
0.00215416
0.00216305
0.0021819
0.00221244
0.00225782
0.00232335
0.00241776
0.00255424
0.00274461
0.00293212
0.0046639
0.00344971
0.00301432
0.00279402
0.00266377
0.00258038
0.00252519
0.00248902
0.00246703
0.00245677
0.00245677
0.00246703
0.00248902
0.00252519
0.00258038
0.00266377
0.00279402
0.00301432
0.00344971
0.0046639
0.00179633
0.00179213
0.00178764
0.0017829
0.00177793
0.00177276
0.0017674
0.00176189
0.00175622
0.00175038
0.00174445
0.00173847
0.00173245
0.00172643
0.00172043
0.00171446
0.00170855
0.00170272
0.00169699
0.00169138
0.0016859
0.00168057
0.00167541
0.00167043
0.00166565
0.00166107
0.00165672
0.0016526
0.00164872
0.00164509
0.00164172
0.00163863
0.00163581
0.00163327
0.00163102
0.00162908
0.00162745
0.00162607
0.00162546
0.00162558
0.00153674
0.00153297
0.00152893
0.00152465
0.00152015
0.00151545
0.00151056
0.0015055
0.00150029
0.00149486
0.00148918
0.00148343
0.00147764
0.00147184
0.00146607
0.00146033
0.00145465
0.00144905
0.00144355
0.00143816
0.00143291
0.0014278
0.00142286
0.00141809
0.00141352
0.00140916
0.00140501
0.00140109
0.00139741
0.00139398
0.0013908
0.00138788
0.00138521
0.0013828
0.00138064
0.00137871
0.00137701
0.00137565
0.00137559
0.00137971
0.00130662
0.00130347
0.00130007
0.00129645
0.00129262
0.00128859
0.00128438
0.00128
0.00127546
0.00127078
0.00126575
0.00126043
0.00125502
0.00124959
0.00124417
0.00123877
0.00123342
0.00122814
0.00122294
0.00121784
0.00121286
0.00120802
0.00120332
0.0011988