/*--------------------------------*- C++ -*----------------------------------*\
  =========                 |
  \\      /  F ield         | OpenFOAM: The Open Source CFD Toolbox
   \\    /   O peration     | Website:  https://openfoam.org
    \\  /    A nd           | Version:  6
     \\/     M anipulation  |
\*---------------------------------------------------------------------------*/
FoamFile
{
    version     2.0;
    format      ascii;
    class       volVectorField;
    location    "30";
    object      U;
}
// * * * * * * * * * * * * * * * * * * * * * * * * * * * * * * * * * * * * * //

dimensions      [0 1 -1 0 0 0 0];

internalField   nonuniform List<vector> 
8800
(
(-4.29451e-05 -0.00134732 0)
(-8.76685e-05 -0.00185385 0)
(-8.75867e-05 -0.0019268 0)
(-8.72264e-05 -0.00193172 0)
(-9.63735e-05 -0.0019282 0)
(-0.000111313 -0.0019258 0)
(-0.000128973 -0.00192514 0)
(-0.000147923 -0.00192574 0)
(-0.000167526 -0.00192721 0)
(-0.000187491 -0.00192933 0)
(-0.000207685 -0.00193197 0)
(-0.000228051 -0.00193507 0)
(-0.000248562 -0.00193857 0)
(-0.000269197 -0.00194246 0)
(-0.000289926 -0.00194672 0)
(-0.000310708 -0.00195133 0)
(-0.00033148 -0.00195629 0)
(-0.000352155 -0.00196161 0)
(-0.000372624 -0.00196729 0)
(-0.000392755 -0.00197334 0)
(-0.000412392 -0.00197978 0)
(-0.00043136 -0.0019866 0)
(-0.000449468 -0.00199383 0)
(-0.000466518 -0.00200146 0)
(-0.000482304 -0.0020095 0)
(-0.000496629 -0.00201793 0)
(-0.000509304 -0.00202673 0)
(-0.000520155 -0.0020359 0)
(-0.000529019 -0.0020454 0)
(-0.000535746 -0.0020552 0)
(-0.000540197 -0.0020652 0)
(-0.000542198 -0.00207514 0)
(-0.000541544 -0.00208434 0)
(-0.000537767 -0.00209336 0)
(-0.000530577 -0.00210261 0)
(-0.000519805 -0.00211214 0)
(-0.000505329 -0.00212195 0)
(-0.000487083 -0.002132 0)
(-0.000465056 -0.00214228 0)
(-0.000439285 -0.00215274 0)
(5.76836e-06 6.99903e-05 0)
(-1.9479e-05 7.21058e-05 0)
(-8.74909e-05 8.82804e-05 0)
(-0.000153111 0.000101305 0)
(-0.0002104 0.000109477 0)
(-0.000264346 0.000115287 0)
(-0.000317402 0.000119829 0)
(-0.000370293 0.000123698 0)
(-0.000423242 0.000127232 0)
(-0.000476304 0.000130614 0)
(-0.000529466 0.000133939 0)
(-0.000582688 0.000137246 0)
(-0.000635906 0.000140543 0)
(-0.000689022 0.000143815 0)
(-0.000741906 0.000147032 0)
(-0.000794381 0.000150154 0)
(-0.000846223 0.000153134 0)
(-0.000897161 0.000155919 0)
(-0.000946876 0.000158455 0)
(-0.000995008 0.000160687 0)
(-0.00104116 0.000162564 0)
(-0.00108491 0.000164039 0)
(-0.00112581 0.000165074 0)
(-0.00116341 0.000165637 0)
(-0.00119728 0.000165713 0)
(-0.001227 0.000165293 0)
(-0.00125216 0.000164382 0)
(-0.00127241 0.000162983 0)
(-0.0012874 0.000161096 0)
(-0.0012968 0.000158718 0)
(-0.00130027 0.000155841 0)
(-0.00129765 0.000152357 0)
(-0.00128821 0.000147544 0)
(-0.00127137 0.000141577 0)
(-0.00124686 0.000134798 0)
(-0.00121452 0.000127355 0)
(-0.00117431 0.000119353 0)
(-0.00112631 0.000110881 0)
(-0.00107064 0.000102022 0)
(-0.00100752 9.2856e-05 0)
(2.66963e-06 0.000170151 0)
(-3.39746e-05 0.000243231 0)
(-0.000121607 0.000253903 0)
(-0.000214975 0.000254319 0)
(-0.000302747 0.000253568 0)
(-0.000386821 0.000252765 0)
(-0.000468852 0.000251909 0)
(-0.000549655 0.000250954 0)
(-0.000629704 0.000249904 0)
(-0.00070923 0.000248782 0)
(-0.000788295 0.0002476 0)
(-0.00086685 0.000246345 0)
(-0.000944763 0.000244976 0)
(-0.00102184 0.000243432 0)
(-0.00109781 0.000241635 0)
(-0.00117235 0.000239495 0)
(-0.00124508 0.00023692 0)
(-0.00131557 0.000233819 0)
(-0.00138333 0.000230106 0)
(-0.00144785 0.000225705 0)
(-0.00150857 0.000220557 0)
(-0.00156492 0.000214622 0)
(-0.00161635 0.000207881 0)
(-0.00166229 0.000200343 0)
(-0.00170221 0.000192041 0)
(-0.0017356 0.000183029 0)
(-0.001762 0.000173376 0)
(-0.00178099 0.000163145 0)
(-0.00179217 0.000152372 0)
(-0.00179513 0.000141036 0)
(-0.00178957 0.00012898 0)
(-0.0017748 0.000115848 0)
(-0.00175024 0.000101665 0)
(-0.00171596 8.68512e-05 0)
(-0.00167197 7.1768e-05 0)
(-0.00161836 5.66797e-05 0)
(-0.00155533 4.18028e-05 0)
(-0.00148315 2.73238e-05 0)
(-0.00140215 1.34067e-05 0)
(-0.00131272 2.00115e-07 0)
(-1.41409e-05 0.000115849 0)
(-7.07851e-05 0.000195874 0)
(-0.000165173 0.000214304 0)
(-0.000269632 0.000215348 0)
(-0.00037458 0.000212786 0)
(-0.000478541 0.000210158 0)
(-0.00058113 0.000208087 0)
(-0.000682328 0.000206444 0)
(-0.000782271 0.000205013 0)
(-0.000881034 0.00020362 0)
(-0.000978576 0.000202132 0)
(-0.00107475 0.000200424 0)
(-0.00116932 0.000198365 0)
(-0.00126197 0.000195817 0)
(-0.00135233 0.000192629 0)
(-0.00143995 0.000188648 0)
(-0.00152433 0.00018372 0)
(-0.00160495 0.000177702 0)
(-0.00168123 0.000170466 0)
(-0.00175259 0.000161902 0)
(-0.00181842 0.00015193 0)
(-0.00187812 0.000140501 0)
(-0.00193112 0.000127599 0)
(-0.00197685 0.000113249 0)
(-0.00201478 9.751e-05 0)
(-0.00204445 8.04708e-05 0)
(-0.00206541 6.22378e-05 0)
(-0.00207729 4.291e-05 0)
(-0.00207972 2.25593e-05 0)
(-0.0020723 1.23245e-06 0)
(-0.00205451 -2.11034e-05 0)
(-0.00202567 -4.48327e-05 0)
(-0.00198614 -6.96609e-05 0)
(-0.00193621 -9.51058e-05 0)
(-0.00187618 -0.000120761 0)
(-0.00180643 -0.000146295 0)
(-0.00172737 -0.00017143 0)
(-0.00163945 -0.00019593 0)
(-0.00154311 -0.000219589 0)
(-0.00143883 -0.000242223 0)
(-2.07958e-05 0.000151767 0)
(-8.81874e-05 0.000269597 0)
(-0.000190615 0.000308375 0)
(-0.000304493 0.000317782 0)
(-0.000421102 0.000317857 0)
(-0.000538058 0.000315651 0)
(-0.000654133 0.000313276 0)
(-0.000768751 0.000311132 0)
(-0.000881677 0.000309125 0)
(-0.000992744 0.000307049 0)
(-0.00110174 0.000304689 0)
(-0.0012084 0.000301835 0)
(-0.00131236 0.00029828 0)
(-0.00141322 0.000293813 0)
(-0.00151051 0.000288229 0)
(-0.00160373 0.000281325 0)
(-0.00169233 0.00027291 0)
(-0.00177574 0.000262811 0)
(-0.00185338 0.000250882 0)
(-0.00192468 0.000237008 0)
(-0.00198904 0.000221113 0)
(-0.00204591 0.000203163 0)
(-0.00209478 0.000183169 0)
(-0.00213514 0.00016119 0)
(-0.00216655 0.000137327 0)
(-0.00218863 0.000111721 0)
(-0.00220103 8.4518e-05 0)
(-0.00220348 5.58364e-05 0)
(-0.00219563 2.57203e-05 0)
(-0.00217698 -5.88546e-06 0)
(-0.00214707 -3.93803e-05 0)
(-0.00210623 -7.42245e-05 0)
(-0.00205489 -0.000109817 0)
(-0.00199357 -0.000145657 0)
(-0.00192282 -0.00018132 0)
(-0.00184318 -0.000216451 0)
(-0.00175521 -0.000250759 0)
(-0.00165946 -0.000284007 0)
(-0.00155645 -0.000316 0)
(-0.00144667 -0.000346573 0)
(-2.15543e-05 0.000206441 0)
(-9.26662e-05 0.000368888 0)
(-0.000201032 0.000426776 0)
(-0.000321498 0.000443885 0)
(-0.000445151 0.000446346 0)
(-0.000569493 0.000444044 0)
(-0.000693038 0.00044041 0)
(-0.000814915 0.000436441 0)
(-0.000934626 0.000432264 0)
(-0.00105179 0.000427723 0)
(-0.00116605 0.000422576 0)
(-0.00127701 0.000416564 0)
(-0.00138423 0.000409426 0)
(-0.00148723 0.000400903 0)
(-0.00158551 0.000390751 0)
(-0.00167855 0.000378737 0)
(-0.0017658 0.000364651 0)
(-0.00184671 0.000348314 0)
(-0.00192074 0.00032958 0)
(-0.00198738 0.000308348 0)
(-0.00204612 0.000284563 0)
(-0.00209649 0.000258223 0)
(-0.00213807 0.00022938 0)
(-0.00217047 0.00019814 0)
(-0.00219336 0.000164658 0)
(-0.00220646 0.000129128 0)
(-0.00220957 9.17318e-05 0)
(-0.00220247 5.25801e-05 0)
(-0.00218472 1.16642e-05 0)
(-0.00215597 -3.11778e-05 0)
(-0.00211656 -7.56774e-05 0)
(-0.00206692 -0.000120958 0)
(-0.00200763 -0.000166374 0)
(-0.00193935 -0.000211407 0)
(-0.00186275 -0.00025562 0)
(-0.0017785 -0.000298662 0)
(-0.00168727 -0.000340264 0)
(-0.00158968 -0.000380228 0)
(-0.00148626 -0.000418412 0)
(-0.0013775 -0.000454707 0)
(-2.06364e-05 0.000257755 0)
(-9.13711e-05 0.00046458 0)
(-0.000201055 0.000541231 0)
(-0.000323511 0.000565987 0)
(-0.000449448 0.000570925 0)
(-0.000576173 0.000568548 0)
(-0.000702004 0.000563504 0)
(-0.000825873 0.000557352 0)
(-0.000947099 0.000550461 0)
(-0.00106515 0.000542757 0)
(-0.00117954 0.000534012 0)
(-0.00128979 0.000523948 0)
(-0.00139542 0.000512279 0)
(-0.00149591 0.000498725 0)
(-0.00159076 0.000483025 0)
(-0.00167948 0.000464939 0)
(-0.00176154 0.000444259 0)
(-0.00183648 0.000420815 0)
(-0.00190384 0.000394483 0)
(-0.00196317 0.000365187 0)
(-0.00201409 0.000332908 0)
(-0.00205625 0.000297684 0)
(-0.00208933 0.000259612 0)
(-0.00211307 0.00021885 0)
(-0.00212727 0.000175604 0)
(-0.00213177 0.000130107 0)
(-0.00212647 8.25496e-05 0)
(-0.00211115 3.30162e-05 0)
(-0.00208515 -1.84598e-05 0)
(-0.00204912 -7.1937e-05 0)
(-0.00200321 -0.000126476 0)
(-0.00194802 -0.000181178 0)
(-0.00188425 -0.00023535 0)
(-0.00181261 -0.00028843 0)
(-0.0017339 -0.000339961 0)
(-0.00164888 -0.000389601 0)
(-0.00155833 -0.000437126 0)
(-0.00146293 -0.000482408 0)
(-0.00136326 -0.000525396 0)
(-0.00125978 -0.000566078 0)
(-1.87901e-05 0.000305992 0)
(-8.59903e-05 0.000557473 0)
(-0.000192563 0.000653969 0)
(-0.000312615 0.000687055 0)
(-0.000436574 0.000694794 0)
(-0.000561418 0.000692439 0)
(-0.000685241 0.000685901 0)
(-0.000806813 0.000677316 0)
(-0.00092532 0.000667314 0)
(-0.00104013 0.000655933 0)
(-0.00115067 0.000642987 0)
(-0.00125643 0.000628213 0)
(-0.00135689 0.000611329 0)
(-0.00145156 0.000592058 0)
(-0.00153996 0.000570148 0)
(-0.00162164 0.000545374 0)
(-0.00169617 0.000517548 0)
(-0.00176315 0.000486529 0)
(-0.00182222 0.000452224 0)
(-0.00187306 0.000414598 0)
(-0.00191539 0.000373673 0)
(-0.00194897 0.000329533 0)
(-0.00197363 0.000282322 0)
(-0.00198921 0.000232243 0)
(-0.0019956 0.000179546 0)
(-0.00199276 0.000124481 0)
(-0.00198064 6.72207e-05 0)
(-0.00195881 7.80184e-06 0)
(-0.00192712 -5.37242e-05 0)
(-0.00188623 -0.000116839 0)
(-0.00183635 -0.000180436 0)
(-0.00177817 -0.000243557 0)
(-0.0017124 -0.000305424 0)
(-0.00163987 -0.000365404 0)
(-0.00156145 -0.000423003 0)
(-0.00147808 -0.000477888 0)
(-0.00139061 -0.000529892 0)
(-0.00129985 -0.000578992 0)
(-0.00120643 -0.00062527 0)
(-0.00111083 -0.000668862 0)
(-1.61547e-05 0.000350219 0)
(-7.72573e-05 0.00064571 0)
(-0.000177098 0.000762921 0)
(-0.000291083 0.000804991 0)
(-0.000409519 0.000815801 0)
(-0.000529004 0.000813459 0)
(-0.000647395 0.00080523 0)
(-0.000763317 0.000793881 0)
(-0.000875857 0.000780337 0)
(-0.000984314 0.000764777 0)
(-0.00108809 0.000747085 0)
(-0.00118664 0.00072704 0)
(-0.00127947 0.000704387 0)
(-0.00136612 0.000678879 0)
(-0.00144616 0.00065029 0)
(-0.00151922 0.00061843 0)
(-0.00158494 0.000583147 0)
(-0.00164303 0.00054434 0)
(-0.00169322 0.000501959 0)
(-0.00173532 0.000456012 0)
(-0.00176914 0.000406567 0)
(-0.00179457 0.000353752 0)
(-0.00181152 0.000297753 0)
(-0.00181994 0.000238808 0)
(-0.00181979 0.000177184 0)
(-0.00181109 0.000113111 0)
(-0.00179375 4.67251e-05 0)
(-0.00176692 -2.19073e-05 0)
(-0.00173171 -9.27263e-05 0)
(-0.00168779 -0.000164606 0)
(-0.00163572 -0.00023638 0)
(-0.00157618 -0.000306993 0)
(-0.00150995 -0.000375552 0)
(-0.00143795 -0.000441324 0)
(-0.00136119 -0.00050375 0)
(-0.00128074 -0.000562494 0)
(-0.00119764 -0.00061746 0)
(-0.00111282 -0.000668759 0)
(-0.00102702 -0.000716656 0)
(-0.000940757 -0.000761487 0)
(-1.30015e-05 0.000388664 0)
(-6.61088e-05 0.000726037 0)
(-0.000156352 0.000864348 0)
(-0.0002613 0.000916005 0)
(-0.000371349 0.000930217 0)
(-0.000482725 0.00092795 0)
(-0.000593042 0.000917912 0)
(-0.000700788 0.000903566 0)
(-0.000804973 0.00088618 0)
(-0.000904853 0.000866104 0)
(-0.000999817 0.000843322 0)
(-0.00108934 0.000817674 0)
(-0.00117295 0.000788955 0)
(-0.00125024 0.000756964 0)
(-0.00132086 0.000721522 0)
(-0.00138448 0.000682482 0)
(-0.00144087 0.000639743 0)
(-0.0014898 0.000593251 0)
(-0.00153112 0.000543002 0)
(-0.00156473 0.00048905 0)
(-0.00159054 0.000431505 0)
(-0.00160853 0.000370531 0)
(-0.00161867 0.000306344 0)
(-0.00162098 0.000239199 0)
(-0.00161548 0.000169348 0)
(-0.00160223 9.69455e-05 0)
(-0.00158098 2.20258e-05 0)
(-0.00155073 -5.51936e-05 0)
(-0.00151295 -0.000134387 0)
(-0.00146716 -0.000214245 0)
(-0.00141394 -0.000293432 0)
(-0.00135398 -0.000370735 0)
(-0.00128812 -0.000445105 0)
(-0.00121736 -0.000515665 0)
(-0.00114288 -0.000581757 0)
(-0.00106593 -0.000643018 0)
(-0.000987761 -0.000699428 0)
(-0.000909473 -0.000751267 0)
(-0.000831946 -0.000799033 0)
(-0.000755774 -0.000843326 0)
(-9.60637e-06 0.000420165 0)
(-5.3462e-05 0.000796071 0)
(-0.000131947 0.000955455 0)
(-0.000225531 0.00101729 0)
(-0.000324954 0.00103535 0)
(-0.000426112 0.00103337 0)
(-0.000526387 0.00102155 0)
(-0.000624134 0.00100413 0)
(-0.000718289 0.000982768 0)
(-0.000808082 0.000958034 0)
(-0.000892907 0.000930028 0)
(-0.000972262 0.000898674 0)
(-0.00104573 0.000863835 0)
(-0.00111294 0.000825369 0)
(-0.00117362 0.000783153 0)
(-0.00122754 0.000737097 0)
(-0.0012745 0.000687154 0)
(-0.0013144 0.00063332 0)
(-0.00134716 0.000575638 0)
(-0.00137274 0.000514203 0)
(-0.00139114 0.000449158 0)
(-0.00140239 0.000380692 0)
(-0.00140651 0.000309033 0)
(-0.00140353 0.000234429 0)
(-0.00139349 0.000157099 0)
(-0.0013764 7.71335e-05 0)
(-0.00135144 -5.53739e-06 0)
(-0.00131932 -9.07936e-05 0)
(-0.00127971 -0.000177699 0)
(-0.00123272 -0.000264884 0)
(-0.00117892 -0.000350836 0)
(-0.001119 -0.000434137 0)
(-0.00105388 -0.000513534 0)
(-0.00098468 -0.000587969 0)
(-0.000912725 -0.000656631 0)
(-0.000839485 -0.0007191 0)
(-0.000766429 -0.000775436 0)
(-0.000694873 -0.000826119 0)
(-0.000625859 -0.000871936 0)
(-0.000560095 -0.00091381 0)
(-6.1894e-06 0.000444168 0)
(-4.0105e-05 0.000854295 0)
(-0.000105331 0.00103431 0)
(-0.000185831 0.00110684 0)
(-0.00027295 0.0011293 0)
(-0.000362337 0.00112796 0)
(-0.000451168 0.00111454 0)
(-0.000537662 0.00109412 0)
(-0.000620685 0.00106882 0)
(-0.000699443 0.00103945 0)
(-0.000773339 0.00100627 0)
(-0.000841904 0.000969293 0)
(-0.000904762 0.00092847 0)
(-0.000961616 0.000883726 0)
(-0.00101224 0.000835004 0)
(-0.00105646 0.000782274 0)
(-0.00109417 0.000725545 0)
(-0.00112533 0.000664862 0)
(-0.00114991 0.000600313 0)
(-0.00116795 0.000532023 0)
(-0.00117948 0.00046016 0)
(-0.00118457 0.000384918 0)
(-0.00118326 0.000306519 0)
(-0.00117557 0.000225175 0)
(-0.00116156 0.000141029 0)
(-0.00114112 5.41016e-05 0)
(-0.00111308 -3.56446e-05 0)
(-0.00107895 -0.000128166 0)
(-0.00103775 -0.000222192 0)
(-0.000989791 -0.000316143 0)
(-0.000935606 -0.000408283 0)
(-0.000875906 -0.000496945 0)
(-0.000811677 -0.000580636 0)
(-0.000744153 -0.000658076 0)
(-0.000674817 -0.000728254 0)
(-0.000605355 -0.000790648 0)
(-0.000537468 -0.000845396 0)
(-0.00047269 -0.000893205 0)
(-0.000412235 -0.00093521 0)
(-0.000356967 -0.00097271 0)
(-2.92785e-06 0.000460557 0)
(-2.67082e-05 0.000899823 0)
(-7.7776e-05 0.00109957 0)
(-0.000144012 0.00118323 0)
(-0.000217639 0.0012107 0)
(-0.00029417 0.00121048 0)
(-0.000370608 0.00119579 0)
(-0.000445049 0.0011726 0)
(-0.000516279 0.00114354 0)
(-0.000583477 0.00110971 0)
(-0.000646053 0.00107153 0)
(-0.000703567 0.00102917 0)
(-0.000755687 0.000982637 0)
(-0.000802165 0.000931954 0)
(-0.000842823 0.000877123 0)
(-0.000877551 0.000818177 0)
(-0.000906292 0.00075518 0)
(-0.000929041 0.000688223 0)
(-0.000945831 0.000617429 0)
(-0.00095672 0.00054295 0)
(-0.00096178 0.00046496 0)
(-0.000961075 0.000383652 0)
(-0.000954641 0.000299219 0)
(-0.000942508 0.000211823 0)
(-0.000924711 0.000121495 0)
(-0.000900966 2.81072e-05 0)
(-0.000870016 -6.82578e-05 0)
(-0.000833637 -0.000167345 0)
(-0.000790803 -0.00026784 0)
(-0.000741857 -0.000367978 0)
(-0.000687267 -0.000465723 0)
(-0.000627787 -0.0005591 0)
(-0.000564491 -0.000646332 0)
(-0.000498704 -0.000725901 0)
(-0.000432059 -0.00079655 0)
(-0.000366458 -0.00085761 0)
(-0.000303807 -0.000909292 0)
(-0.00024584 -0.000952542 0)
(-0.000193927 -0.00098887 0)
(-0.000149152 -0.00102001 0)
(3.0789e-08 0.000469567 0)
(-1.38436e-05 0.000932317 0)
(-5.03749e-05 0.00115043 0)
(-0.00010164 0.00124545 0)
(-0.000161001 0.00127858 0)
(-0.000223969 0.00128008 0)
(-0.00028743 0.00126459 0)
(-0.000349361 0.00123899 0)
(-0.000408468 0.00120647 0)
(-0.000463891 0.00116847 0)
(-0.000515039 0.00112562 0)
(-0.000561492 0.0010782 0)
(-0.000602952 0.00102635 0)
(-0.00063921 0.000970161 0)
(-0.000670129 0.000909698 0)
(-0.000695636 0.000845058 0)
(-0.000715708 0.000776355 0)
(-0.000730372 0.000703723 0)
(-0.000739683 0.000627313 0)
(-0.000743714 0.000547289 0)
(-0.000742539 0.000463824 0)
(-0.000736208 0.000377088 0)
(-0.000724732 0.000287234 0)
(-0.00070812 0.000194348 0)
(-0.000686327 9.83668e-05 0)
(-0.000658427 -9.21933e-07 0)
(-0.000625002 -0.000103409 0)
(-0.00058615 -0.000208447 0)
(-0.000541521 -0.000314754 0)
(-0.000491407 -0.000420453 0)
(-0.000436262 -0.000523172 0)
(-0.000376916 -0.000620575 0)
(-0.000314547 -0.000710571 0)
(-0.000250542 -0.000791381 0)
(-0.00018671 -0.000861438 0)
(-0.000125164 -0.000919904 0)
(-6.79075e-05 -0.000967098 0)
(-1.68208e-05 -0.0010042 0)
(2.66102e-05 -0.00103308 0)
(6.08757e-05 -0.00105588 0)
(2.5899e-06 0.000471722 0)
(-1.96756e-06 0.000951894 0)
(-2.40571e-05 0.00118657 0)
(-6.00488e-05 0.00129297 0)
(-0.00010471 0.00133236 0)
(-0.000153713 0.00133626 0)
(-0.000203889 0.00132054 0)
(-0.000253113 0.00129302 0)
(-0.000300006 0.00125747 0)
(-0.000343659 0.00121569 0)
(-0.000383463 0.00116855 0)
(-0.000419008 0.00111651 0)
(-0.000450018 0.00105979 0)
(-0.00047631 0.00099857 0)
(-0.000497775 0.000932992 0)
(-0.000514359 0.000863199 0)
(-0.000526059 0.000789356 0)
(-0.000532913 0.000711633 0)
(-0.000534984 0.0006302 0)
(-0.000532346 0.000545225 0)
(-0.000525059 0.000456867 0)
(-0.000513154 0.000365262 0)
(-0.000496615 0.000270498 0)
(-0.000475436 0.000172556 0)
(-0.00044944 7.12718e-05 0)
(-0.000417058 -3.33765e-05 0)
(-0.000380615 -0.00014129 0)
(-0.000338869 -0.000251671 0)
(-0.000292078 -0.000363132 0)
(-0.000240472 -0.000473736 0)
(-0.000184586 -0.000580728 0)
(-0.000125315 -0.000681423 0)
(-6.38724e-05 -0.00077343 0)
(-1.61719e-06 -0.000854747 0)
(5.92709e-05 -0.000923143 0)
(0.000116417 -0.000977554 0)
(0.000167992 -0.0010187 0)
(0.000211956 -0.00104797 0)
(0.000246613 -0.00106755 0)
(0.000270706 -0.00108033 0)
(4.78422e-06 0.000467911 0)
(8.68185e-06 0.000958977 0)
(4.27936e-07 0.00120795 0)
(-2.03835e-05 0.00132558 0)
(-5.01864e-05 0.00137176 0)
(-8.50541e-05 0.00137876 0)
(-0.000121839 0.00136349 0)
(-0.000158344 0.00133463 0)
(-0.000193099 0.00129654 0)
(-0.000225133 0.00125146 0)
(-0.000253802 0.0012005 0)
(-0.000278692 0.0011443 0)
(-0.000299536 0.0010832 0)
(-0.000316165 0.00101746 0)
(-0.000328483 0.000947293 0)
(-0.00033644 0.000872884 0)
(-0.000340033 0.000794448 0)
(-0.000339304 0.000712184 0)
(-0.00033431 0.000626275 0)
(-0.000325112 0.000536884 0)
(-0.000311747 0.00044415 0)
(-0.000294214 0.000348169 0)
(-0.000272491 0.000248966 0)
(-0.000246577 0.000146388 0)
(-0.00021603 4.00609e-05 0)
(-0.000179207 -6.96072e-05 0)
(-0.000138932 -0.000182312 0)
(-9.38783e-05 -0.000297415 0)
(-4.44923e-05 -0.000413469 0)
(9.06832e-06 -0.00052873 0)
(6.58096e-05 -0.000639355 0)
(0.00012488 -0.000742334 0)
(0.000185189 -0.000835147 0)
(0.000245064 -0.000915181 0)
(0.000302504 -0.000980345 0)
(0.000355411 -0.00102973 0)
(0.000401609 -0.00106375 0)
(0.000438881 -0.00108393 0)
(0.000465335 -0.00109284 0)
(0.000479577 -0.0010939 0)
(6.66046e-06 0.000458647 0)
(1.80775e-05 0.000954991 0)
(2.26127e-05 0.00121515 0)
(1.64526e-05 0.00134319 0)
(1.35998e-06 0.00139669 0)
(-1.93969e-05 0.00140757 0)
(-4.28195e-05 0.00139347 0)
(-6.67059e-05 0.0013639 0)
(-8.95004e-05 0.00132387 0)
(-0.000110152 0.00127601 0)
(-0.000127968 0.00122174 0)
(-0.000142511 0.00116187 0)
(-0.000153507 0.00109689 0)
(-0.000160786 0.00102715 0)
(-0.000164254 0.000952911 0)
(-0.000163851 0.000874408 0)
(-0.000159563 0.000791899 0)
(-0.000151427 0.000705609 0)
(-0.000139487 0.000615723 0)
(-0.000123778 0.000522392 0)
(-0.000104305 0.000425726 0)
(-8.10126e-05 0.000325766 0)
(-5.38429e-05 0.000222442 0)
(-2.2777e-05 0.000115411 0)
(1.35074e-05 3.75655e-06 0)
(5.42323e-05 -0.000110777 0)
(9.84322e-05 -0.000227822 0)
(0.000146762 -0.000346996 0)
(0.000198669 -0.000466723 0)
(0.000253606 -0.000584532 0)
(0.000310909 -0.000697261 0)
(0.000369869 -0.000801679 0)
(0.000429295 -0.000894561 0)
(0.000487451 -0.000972849 0)
(0.000542264 -0.00103418 0)
(0.000591464 -0.00107744 0)
(0.000632655 -0.00110298 0)
(0.000663479 -0.00111255 0)
(0.000681903 -0.00110913 0)
(0.000686405 -0.00109668 0)
(8.18796e-06 0.000444681 0)
(2.62094e-05 0.000940739 0)
(4.23762e-05 0.00120928 0)
(4.98818e-05 0.00134659 0)
(4.894e-05 0.00140728 0)
(4.2077e-05 0.00142265 0)
(3.18689e-05 0.00141056 0)
(2.04417e-05 0.00138108 0)
(9.40047e-06 0.00133978 0)
(-1.36403e-07 0.0012897 0)
(-7.40908e-06 0.00123262 0)
(-1.19303e-05 0.0011696 0)
(-1.33963e-05 0.00110124 0)
(-1.16163e-05 0.00102798 0)
(-6.48125e-06 0.000950137 0)
(2.0807e-06 0.000867913 0)
(1.40763e-05 0.0007817 0)
(2.94902e-05 0.000691749 0)
(4.83061e-05 0.000598222 0)
(7.0514e-05 0.000501251 0)
(9.6139e-05 0.000400902 0)
(0.000125264 0.000297148 0)
(0.000157955 0.000189802 0)
(0.000194272 7.84793e-05 0)
(0.000236014 -3.69383e-05 0)
(0.00028014 -0.000155205 0)
(0.000327985 -0.000275907 0)
(0.000379342 -0.000398448 0)
(0.000433666 -0.000521164 0)
(0.000490432 -0.000641433 0)
(0.000549022 -0.000755948 0)
(0.000608599 -0.000861095 0)
(0.000667857 -0.000953173 0)
(0.000724977 -0.00102872 0)
(0.000777738 -0.00108506 0)
(0.000823655 -0.0011209 0)
(0.000860122 -0.00113653 0)
(0.000884646 -0.00113392 0)
(0.000895088 -0.00111649 0)
(0.000889852 -0.00108877 0)
(9.36543e-06 0.000426806 0)
(3.30448e-05 0.000917348 0)
(5.96449e-05 0.00119134 0)
(7.97398e-05 0.00133657 0)
(9.21164e-05 0.0014042 0)
(9.85599e-05 0.00142436 0)
(0.000101194 0.00141486 0)
(0.000101964 0.00138614 0)
(0.000102444 0.00134422 0)
(0.000103785 0.00129259 0)
(0.00010679 0.0012333 0)
(0.000112003 0.00116762 0)
(0.000119784 0.00109632 0)
(0.000130357 0.00101995 0)
(0.000143852 0.000938919 0)
(0.000160329 0.000853537 0)
(0.000179799 0.000764143 0)
(0.00020228 0.000670993 0)
(0.000227778 0.00057427 0)
(0.000256303 0.000474089 0)
(0.000287896 0.000370483 0)
(0.000322623 0.000263368 0)
(0.000360507 0.000152442 0)
(0.000401826 3.7191e-05 0)
(0.000448051 -8.19802e-05 0)
(0.000496283 -0.000203602 0)
(0.000547828 -0.000327495 0)
(0.000602356 -0.000452915 0)
(0.000659407 -0.000578085 0)
(0.00071851 -0.000700255 0)
(0.000779007 -0.000815915 0)
(0.000839906 -0.000921058 0)
(0.000899728 -0.00101149 0)
(0.000956475 -0.00108328 0)
(0.00100771 -0.00113344 0)
(0.00105072 -0.00116043 0)
(0.00108268 -0.00116458 0)
(0.00110098 -0.00114811 0)
(0.00110341 -0.00111492 0)
(0.00108836 -0.00107016 0)
(1.02173e-05 0.000405776 0)
(3.85997e-05 0.000886012 0)
(7.43759e-05 0.00116251 0)
(0.000105899 0.00131416 0)
(0.000130644 0.00138822 0)
(0.000149659 0.00141332 0)
(0.000164595 0.0014069 0)
(0.000177145 0.00137955 0)
(0.000188794 0.00133766 0)
(0.000200691 0.00128506 0)
(0.00021367 0.00122412 0)
(0.00022832 0.00115631 0)
(0.000245043 0.00108257 0)
(0.000264095 0.00100358 0)
(0.000285629 0.000919806 0)
(0.000309719 0.000831648 0)
(0.000336399 0.000739448 0)
(0.000365697 0.000643475 0)
(0.000397638 0.000543912 0)
(0.000432249 0.000440861 0)
(0.000469593 0.00033432 0)
(0.000509726 0.000224133 0)
(0.000552689 0.000109896 0)
(0.000599754 -8.93497e-06 0)
(0.000649415 -0.000131203 0)
(0.000701619 -0.000255785 0)
(0.000756808 -0.000382491 0)
(0.000814661 -0.000510441 0)
(0.000874792 -0.000637729 0)
(0.000936722 -0.000761432 0)
(0.000999706 -0.000877752 0)
(0.00106258 -0.000982237 0)
(0.00112364 -0.00107017 0)
(0.00118062 -0.00113714 0)
(0.00123082 -0.00117976 0)
(0.00127122 -0.00119635 0)
(0.00129883 -0.00118729 0)
(0.00131089 -0.00115514 0)
(0.00130516 -0.00110436 0)
(0.00128013 -0.00104078 0)
(1.07748e-05 0.000382307 0)
(4.29233e-05 0.000847928 0)
(8.6574e-05 0.00112403 0)
(0.000128284 0.00128045 0)
(0.00016434 0.00136024 0)
(0.000195071 0.00139022 0)
(0.000221634 0.0013872 0)
(0.000245429 0.00136175 0)
(0.000267801 0.00132047 0)
(0.000289861 0.00126749 0)
(0.000312453 0.00120545 0)
(0.000336197 0.00113601 0)
(0.000361523 0.00106032 0)
(0.000388718 0.000979139 0)
(0.000417958 0.000893058 0)
(0.000449344 0.000802526 0)
(0.000482932 0.000707908 0)
(0.00051876 0.000609485 0)
(0.000556865 0.000507441 0)
(0.000597292 0.000401864 0)
(0.000640111 0.000292708 0)
(0.000685376 0.000179722 0)
(0.00073327 6.23789e-05 0)
(0.0007853 -5.95189e-05 0)
(0.000838826 -0.000184374 0)
(0.000895002 -0.000311635 0)
(0.000953889 -0.000440945 0)
(0.00101526 -0.00057125 0)
(0.00107881 -0.000700481 0)
(0.00114402 -0.000825483 0)
(0.00121003 -0.000942079 0)
(0.00127548 -0.0010453 0)
(0.00133837 -0.00112986 0)
(0.00139611 -0.00119081 0)
(0.00144564 -0.00122441 0)
(0.00148365 -0.00122884 0)
(0.0015069 -0.00120466 0)
(0.00151254 -0.00115487 0)
(0.00149838 -0.00108459 0)
(0.00146304 -0.00100044 0)
(1.10705e-05 0.000357066 0)
(4.60832e-05 0.000804294 0)
(9.62875e-05 0.00107718 0)
(0.000146875 0.00123661 0)
(0.000193091 0.00132126 0)
(0.000234573 0.00135586 0)
(0.000271975 0.00135641 0)
(0.000306375 0.00133325 0)
(0.000338941 0.00129308 0)
(0.000370706 0.00124026 0)
(0.000402501 0.00117763 0)
(0.000434954 0.00110707 0)
(0.000468519 0.00102988 0)
(0.000503505 0.000946964 0)
(0.000540114 0.000858992 0)
(0.000578468 0.000766481 0)
(0.000618643 0.000669828 0)
(0.000660693 0.000569324 0)
(0.000704665 0.000465154 0)
(0.000750627 0.000357385 0)
(0.000798656 0.000245917 0)
(0.000848834 0.000130384 0)
(0.000901931 1.01356e-05 0)
(0.000957921 -0.000114311 0)
(0.00101552 -0.000241506 0)
(0.00107562 -0.000371241 0)
(0.00113827 -0.000503032 0)
(0.00120336 -0.000635629 0)
(0.00127063 -0.000766745 0)
(0.00133953 -0.000892904 0)
(0.00140905 -0.00100946 0)
(0.00147758 -0.00111083 0)
(0.00154278 -0.00119107 0)
(0.00160167 -0.0012447 0)
(0.00165075 -0.00126761 0)
(0.00168637 -0.00125794 0)
(0.00170505 -0.00121653 0)
(0.00170387 -0.00114699 0)
(0.00168076 -0.00105524 0)
(0.00163456 -0.000948787 0)
(1.11375e-05 0.000330669 0)
(4.81619e-05 0.000756288 0)
(0.000103603 0.00102328 0)
(0.000161714 0.00118392 0)
(0.00021686 0.00127238 0)
(0.000268027 0.00131119 0)
(0.000315378 0.00131529 0)
(0.000359646 0.00129467 0)
(0.000401791 0.00125602 0)
(0.00044274 0.00120381 0)
(0.000483279 0.00114107 0)
(0.000524026 0.00106986 0)
(0.000565443 0.000991625 0)
(0.000607857 0.000907398 0)
(0.000651486 0.000817943 0)
(0.000696472 0.00072384 0)
(0.000742908 0.000625521 0)
(0.000790861 0.000523293 0)
(0.000840397 0.000417337 0)
(0.000891606 0.000307683 0)
(0.000944593 0.000194139 0)
(0.000999571 7.61937e-05 0)
(0.00105793 -4.6716e-05 0)
(0.00111742 -0.000173126 0)
(0.00117895 -0.000302496 0)
(0.00124289 -0.000434627 0)
(0.00130935 -0.00056889 0)
(0.00137834 -0.000703828 0)
(0.00144961 -0.00083687 0)
(0.00152256 -0.000964119 0)
(0.00159598 -0.00108034 0)
(0.00166797 -0.00117925 0)
(0.0017358 -0.00125418 0)
(0.001796 -0.00129903 0)
(0.0018446 -0.00130938 0)
(0.00187756 -0.00128342 0)
(0.00189115 -0.00122248 0)
(0.00188243 -0.00113092 0)
(0.00184951 -0.00101565 0)
(0.00179162 -0.000885219 0)
(1.10094e-05 0.000303672 0)
(4.92539e-05 0.000705052 0)
(0.000108643 0.000963673 0)
(0.000172897 0.00112367 0)
(0.000235678 0.0012148 0)
(0.000295382 0.00125721 0)
(0.000351693 0.00126469 0)
(0.000404999 0.00124674 0)
(0.000456029 0.00120989 0)
(0.000505573 0.00115867 0)
(0.000554345 0.00109623 0)
(0.000602934 0.0010248 0)
(0.000651794 0.000945934 0)
(0.000701256 0.000860802 0)
(0.00075155 0.000770254 0)
(0.000802829 0.000674932 0)
(0.000855198 0.000575308 0)
(0.00090874 0.000471702 0)
(0.000963542 0.000364279 0)
(0.00101971 0.000253016 0)
(0.00107741 0.000137593 0)
(0.00113727 1.7356e-05 0)
(0.00119963 -0.000107568 0)
(0.00126307 -0.0002358 0)
(0.00132853 -0.000367292 0)
(0.00139635 -0.00050184 0)
(0.00146675 -0.000638665 0)
(0.00153981 -0.000776077 0)
(0.00161533 -0.000911151 0)
(0.00169257 -0.00103946 0)
(0.00177015 -0.00115507 0)
(0.00184581 -0.00125085 0)
(0.00191634 -0.00131932 0)
(0.00197774 -0.00135373 0)
(0.0020255 -0.00134941 0)
(0.00205514 -0.00130474 0)
(0.00206271 -0.0012217 0)
(0.00204531 -0.00110568 0)
(0.00200131 -0.000964814 0)
(0.00193046 -0.000808802 0)
(1.07188e-05 0.000276569 0)
(4.94616e-05 0.000651668 0)
(0.000111557 0.000899678 0)
(0.000180572 0.00105723 0)
(0.000249649 0.00114976 0)
(0.000316664 0.00119504 0)
(0.000380863 0.00120558 0)
(0.000442288 0.00119025 0)
(0.000501423 0.00115536 0)
(0.000558902 0.00110541 0)
(0.000615342 0.00104362 0)
(0.000671281 0.000972318 0)
(0.000727147 0.000893207 0)
(0.000783264 0.000807544 0)
(0.000839859 0.00071627 0)
(0.000897092 0.000620088 0)
(0.000955077 0.000519503 0)
(0.00101391 0.000414843 0)
(0.00107371 0.000306243 0)
(0.00113463 0.000193582 0)
(0.00119697 7.63854e-05 0)
(0.00126193 -4.60588e-05 0)
(0.00132765 -0.00017237 0)
(0.00139491 -0.000302305 0)
(0.0014642 -0.000435925 0)
(0.00153592 -0.000572971 0)
(0.00161036 -0.000712505 0)
(0.00168765 -0.000852571 0)
(0.00176755 -0.000989802 0)
(0.00184922 -0.00111913 0)
(0.00193101 -0.00123378 0)
(0.00201027 -0.00132565 0)
(0.00208325 -0.00138633 0)
(0.00214535 -0.00140841 0)
(0.00219147 -0.001387 0)
(0.00221666 -0.00132087 0)
(0.00221677 -0.00121292 0)
(0.00218899 -0.00106985 0)
(0.0021321 -0.000901216 0)
(0.00204646 -0.000718107 0)
(1.02969e-05 0.000249789 0)
(4.88921e-05 0.000597147 0)
(0.000112517 0.000832591 0)
(0.000184929 0.000985946 0)
(0.000258933 0.00107858 0)
(0.000331978 0.00112587 0)
(0.000402912 0.00113899 0)
(0.000471451 0.0011261 0)
(0.000537832 0.0010932 0)
(0.000602511 0.00104467 0)
(0.000665995 0.000983776 0)
(0.000728747 0.00091291 0)
(0.000791154 0.000833869 0)
(0.000853516 0.000748007 0)
(0.000916048 0.000656341 0)
(0.000978908 0.000559628 0)
(0.00104221 0.000458401 0)
(0.00110609 0.000352981 0)
(0.00117067 0.000243439 0)
(0.00123619 0.000129523 0)
(0.00130337 1.05778e-05 0)
(0.00137219 -0.000113241 0)
(0.00144177 -0.000240888 0)
(0.00151293 -0.000372576 0)
(0.00158613 -0.000508425 0)
(0.00166184 -0.000648109 0)
(0.00174042 -0.000790531 0)
(0.00182201 -0.00093342 0)
(0.00190629 -0.00107289 0)
(0.00199228 -0.00120312 0)
(0.00207803 -0.00131633 0)
(0.00216044 -0.00140332 0)
(0.0022352 -0.00145464 0)
(0.00229702 -0.00146218 0)
(0.00234016 -0.00142094 0)
(0.00235919 -0.00133027 0)
(0.00234977 -0.0011943 0)
(0.00230927 -0.00102135 0)
(0.00223696 -0.000822728 0)
(0.00213399 -0.000611043 0)
(9.77238e-06 0.0002237 0)
(4.76522e-05 0.000542418 0)
(0.000111709 0.000763657 0)
(0.000186189 0.000911187 0)