/*--------------------------------*- C++ -*----------------------------------*\
  =========                 |
  \\      /  F ield         | OpenFOAM: The Open Source CFD Toolbox
   \\    /   O peration     | Website:  https://openfoam.org
    \\  /    A nd           | Version:  6
     \\/     M anipulation  |
\*---------------------------------------------------------------------------*/
FoamFile
{
    version     2.0;
    format      ascii;
    class       volScalarField;
    location    "100";
    object      p;
}
// * * * * * * * * * * * * * * * * * * * * * * * * * * * * * * * * * * * * * //

dimensions      [0 2 -2 0 0 0 0];

internalField   nonuniform List<scalar> 
8800
(
2.44371e-11
3.89793e-07
6.17756e-07
7.10167e-07
7.47971e-07
7.64312e-07
7.70185e-07
7.69969e-07
7.66231e-07
7.60426e-07
7.53397e-07
7.45693e-07
7.37716e-07
7.29787e-07
7.22169e-07
7.1507e-07
7.08648e-07
7.02996e-07
6.98125e-07
6.93944e-07
6.90256e-07
6.86852e-07
6.83664e-07
6.79366e-07
6.72533e-07
6.61588e-07
6.44685e-07
6.19828e-07
5.85137e-07
5.3912e-07
4.8099e-07
4.10939e-07
3.30374e-07
2.42849e-07
1.5108e-07
5.8147e-08
-3.31968e-08
-1.23249e-07
-2.11486e-07
-2.96735e-07
-1.9062e-05
-1.92816e-05
-1.93757e-05
-1.94097e-05
-1.94347e-05
-1.94611e-05
-1.94906e-05
-1.95242e-05
-1.9562e-05
-1.96034e-05
-1.96481e-05
-1.96954e-05
-1.97449e-05
-1.97961e-05
-1.98484e-05
-1.99014e-05
-1.99547e-05
-2.00078e-05
-2.00603e-05
-2.0112e-05
-2.01627e-05
-2.02121e-05
-2.02612e-05
-2.031e-05
-2.03589e-05
-2.04089e-05
-2.04614e-05
-2.05177e-05
-2.05795e-05
-2.06481e-05
-2.07247e-05
-2.08097e-05
-2.09028e-05
-2.1004e-05
-2.11119e-05
-2.12248e-05
-2.13408e-05
-2.1456e-05
-2.15679e-05
-2.16747e-05
-3.4593e-05
-3.46776e-05
-3.47245e-05
-3.47535e-05
-3.47849e-05
-3.48218e-05
-3.48643e-05
-3.49121e-05
-3.49651e-05
-3.50231e-05
-3.50858e-05
-3.51528e-05
-3.52237e-05
-3.52979e-05
-3.5375e-05
-3.54545e-05
-3.55358e-05
-3.56186e-05
-3.57024e-05
-3.5787e-05
-3.58722e-05
-3.59581e-05
-3.60453e-05
-3.61337e-05
-3.62235e-05
-3.63151e-05
-3.64094e-05
-3.65074e-05
-3.66101e-05
-3.67182e-05
-3.68322e-05
-3.69517e-05
-3.70763e-05
-3.72045e-05
-3.73348e-05
-3.74649e-05
-3.7593e-05
-3.7718e-05
-3.78386e-05
-3.7954e-05
-4.79023e-05
-4.79142e-05
-4.79292e-05
-4.79555e-05
-4.79931e-05
-4.80399e-05
-4.80951e-05
-4.81581e-05
-4.82285e-05
-4.8306e-05
-4.83901e-05
-4.84805e-05
-4.85765e-05
-4.86777e-05
-4.87834e-05
-4.88931e-05
-4.90062e-05
-4.9122e-05
-4.92401e-05
-4.93599e-05
-4.9481e-05
-4.96034e-05
-4.97264e-05
-4.98501e-05
-4.99744e-05
-5.00998e-05
-5.02267e-05
-5.03558e-05
-5.04877e-05
-5.06229e-05
-5.07618e-05
-5.09041e-05
-5.10493e-05
-5.11963e-05
-5.13438e-05
-5.14901e-05
-5.16339e-05
-5.17736e-05
-5.19079e-05
-5.20358e-05
-6.01591e-05
-6.01835e-05
-6.02119e-05
-6.02504e-05
-6.03004e-05
-6.03612e-05
-6.04322e-05
-6.0513e-05
-6.06032e-05
-6.07024e-05
-6.08101e-05
-6.09257e-05
-6.10487e-05
-6.11782e-05
-6.13137e-05
-6.14544e-05
-6.15995e-05
-6.17483e-05
-6.18999e-05
-6.20537e-05
-6.22091e-05
-6.23654e-05
-6.25215e-05
-6.26769e-05
-6.28317e-05
-6.2986e-05
-6.314e-05
-6.32942e-05
-6.34491e-05
-6.36054e-05
-6.37634e-05
-6.39232e-05
-6.40847e-05
-6.4247e-05
-6.44093e-05
-6.45701e-05
-6.47283e-05
-6.48823e-05
-6.50307e-05
-6.51722e-05
-7.14125e-05
-7.14515e-05
-7.14914e-05
-7.15393e-05
-7.15996e-05
-7.16724e-05
-7.17573e-05
-7.1854e-05
-7.19619e-05
-7.20807e-05
-7.22097e-05
-7.23481e-05
-7.24954e-05
-7.26506e-05
-7.2813e-05
-7.29817e-05
-7.31557e-05
-7.33341e-05
-7.3516e-05
-7.37005e-05
-7.38867e-05
-7.40737e-05
-7.426e-05
-7.44446e-05
-7.46274e-05
-7.48081e-05
-7.49868e-05
-7.5164e-05
-7.53401e-05
-7.55158e-05
-7.56918e-05
-7.58684e-05
-7.60458e-05
-7.62236e-05
-7.64011e-05
-7.65772e-05
-7.67504e-05
-7.69192e-05
-7.7082e-05
-7.72373e-05
-8.16792e-05
-8.17226e-05
-8.17675e-05
-8.1822e-05
-8.1891e-05
-8.19744e-05
-8.2072e-05
-8.21833e-05
-8.23077e-05
-8.24447e-05
-8.25936e-05
-8.27534e-05
-8.29235e-05
-8.31028e-05
-8.32903e-05
-8.34851e-05
-8.36861e-05
-8.38921e-05
-8.41021e-05
-8.43149e-05
-8.45296e-05
-8.47447e-05
-8.49581e-05
-8.51688e-05
-8.53763e-05
-8.55802e-05
-8.57804e-05
-8.59771e-05
-8.6171e-05
-8.63628e-05
-8.65536e-05
-8.67441e-05
-8.69349e-05
-8.71261e-05
-8.73171e-05
-8.75069e-05
-8.76941e-05
-8.78769e-05
-8.80536e-05
-8.82224e-05
-9.1036e-05
-9.1081e-05
-9.11294e-05
-9.11898e-05
-9.12667e-05
-9.13601e-05
-9.14695e-05
-9.15945e-05
-9.17344e-05
-9.18885e-05
-9.20559e-05
-9.22357e-05
-9.24269e-05
-9.26285e-05
-9.28394e-05
-9.30583e-05
-9.3284e-05
-9.35152e-05
-9.37507e-05
-9.39892e-05
-9.42294e-05
-9.44693e-05
-9.47065e-05
-9.49397e-05
-9.51683e-05
-9.53917e-05
-9.56095e-05
-9.5822e-05
-9.60298e-05
-9.62341e-05
-9.64361e-05
-9.66372e-05
-9.68384e-05
-9.70402e-05
-9.72424e-05
-9.74441e-05
-9.76436e-05
-9.78391e-05
-9.80287e-05
-9.82101e-05
-9.95593e-05
-9.96049e-05
-9.96564e-05
-9.9722e-05
-9.98061e-05
-9.99084e-05
-0.000100028
-0.000100166
-0.00010032
-0.000100489
-0.000100673
-0.000100871
-0.000101081
-0.000101302
-0.000101534
-0.000101774
-0.000102022
-0.000102275
-0.000102533
-0.000102794
-0.000103056
-0.000103317
-0.000103574
-0.000103827
-0.000104073
-0.000104312
-0.000104544
-0.000104768
-0.000104987
-0.0001052
-0.00010541
-0.000105619
-0.000105828
-0.000106038
-0.000106249
-0.00010646
-0.00010667
-0.000106877
-0.000107078
-0.000107271
-0.000107316
-0.000107361
-0.000107415
-0.000107485
-0.000107575
-0.000107685
-0.000107815
-0.000107963
-0.000108128
-0.000108311
-0.00010851
-0.000108723
-0.000108949
-0.000109188
-0.000109437
-0.000109696
-0.000109962
-0.000110235
-0.000110512
-0.000110791
-0.000111072
-0.00011135
-0.000111624
-0.000111891
-0.000112151
-0.000112402
-0.000112644
-0.000112878
-0.000113104
-0.000113323
-0.000113538
-0.000113752
-0.000113966
-0.000114182
-0.0001144
-0.000114618
-0.000114837
-0.000115053
-0.000115264
-0.000115468
-0.000114368
-0.000114412
-0.000114467
-0.000114541
-0.000114636
-0.000114752
-0.000114889
-0.000115046
-0.000115222
-0.000115416
-0.000115626
-0.000115852
-0.000116092
-0.000116345
-0.00011661
-0.000116883
-0.000117165
-0.000117453
-0.000117746
-0.000118041
-0.000118336
-0.000118627
-0.000118913
-0.000119192
-0.000119462
-0.000119722
-0.000119971
-0.000120211
-0.000120441
-0.000120664
-0.000120882
-0.000121098
-0.000121315
-0.000121533
-0.000121754
-0.000121978
-0.000122203
-0.000122428
-0.000122648
-0.00012286
-0.000120772
-0.000120813
-0.000120869
-0.000120946
-0.000121045
-0.000121166
-0.000121309
-0.000121473
-0.000121657
-0.000121859
-0.00012208
-0.000122316
-0.000122567
-0.000122831
-0.000123107
-0.000123392
-0.000123686
-0.000123986
-0.000124291
-0.000124598
-0.000124903
-0.000125204
-0.000125499
-0.000125786
-0.000126062
-0.000126328
-0.000126581
-0.000126823
-0.000127055
-0.000127279
-0.000127498
-0.000127713
-0.000127929
-0.000128148
-0.000128372
-0.000128599
-0.00012883
-0.00012906
-0.000129286
-0.000129504
-0.00012658
-0.000126619
-0.000126675
-0.000126753
-0.000126855
-0.00012698
-0.000127127
-0.000127296
-0.000127486
-0.000127695
-0.000127922
-0.000128165
-0.000128424
-0.000128697
-0.000128981
-0.000129275
-0.000129578
-0.000129887
-0.0001302
-0.000130514
-0.000130827
-0.000131134
-0.000131434
-0.000131725
-0.000132005
-0.000132272
-0.000132527
-0.00013277
-0.000133001
-0.000133223
-0.000133439
-0.000133651
-0.000133865
-0.000134084
-0.000134308
-0.000134538
-0.000134771
-0.000135004
-0.000135233
-0.000135454
-0.000131841
-0.000131877
-0.000131932
-0.000132011
-0.000132114
-0.000132241
-0.000132392
-0.000132564
-0.000132757
-0.00013297
-0.000133202
-0.00013345
-0.000133714
-0.000133991
-0.000134281
-0.000134581
-0.000134889
-0.000135203
-0.000135521
-0.00013584
-0.000136155
-0.000136465
-0.000136767
-0.000137059
-0.000137341
-0.000137608
-0.000137862
-0.000138102
-0.000138329
-0.000138546
-0.000138757
-0.000138966
-0.000139176
-0.000139393
-0.000139616
-0.000139845
-0.000140078
-0.000140311
-0.000140539
-0.00014076
-0.000136599
-0.000136631
-0.000136685
-0.000136764
-0.000136868
-0.000136996
-0.000137147
-0.000137321
-0.000137515
-0.00013773
-0.000137964
-0.000138214
-0.00013848
-0.00013876
-0.000139052
-0.000139355
-0.000139665
-0.000139981
-0.000140301
-0.000140621
-0.000140935
-0.000141245
-0.000141547
-0.000141838
-0.000142117
-0.000142382
-0.000142631
-0.000142866
-0.000143087
-0.000143297
-0.000143502
-0.000143705
-0.000143911
-0.000144123
-0.000144343
-0.000144569
-0.000144799
-0.000145028
-0.000145252
-0.000145467
-0.000140895
-0.000140923
-0.000140976
-0.000141054
-0.000141157
-0.000141284
-0.000141435
-0.000141608
-0.000141803
-0.000142017
-0.00014225
-0.0001425
-0.000142766
-0.000143045
-0.000143337
-0.000143639
-0.000143949
-0.000144265
-0.000144584
-0.000144901
-0.000145213
-0.00014552
-0.000145819
-0.000146106
-0.00014638
-0.000146638
-0.000146881
-0.000147107
-0.00014732
-0.000147522
-0.000147719
-0.000147915
-0.000148115
-0.000148321
-0.000148536
-0.000148757
-0.00014898
-0.0001492
-0.000149414
-0.000149616
-0.000144767
-0.000144792
-0.000144842
-0.000144919
-0.00014502
-0.000145145
-0.000145294
-0.000145465
-0.000145657
-0.000145869
-0.0001461
-0.000146347
-0.00014661
-0.000146887
-0.000147176
-0.000147475
-0.000147782
-0.000148095
-0.00014841
-0.000148722
-0.000149029
-0.000149331
-0.000149623
-0.000149904
-0.000150169
-0.000150419
-0.000150652
-0.000150869
-0.000151072
-0.000151265
-0.000151453
-0.00015164
-0.000151832
-0.000152031
-0.000152238
-0.000152449
-0.000152661
-0.000152867
-0.000153064
-0.000153241
-0.000148251
-0.000148272
-0.00014832
-0.000148394
-0.000148493
-0.000148615
-0.00014876
-0.000148928
-0.000149116
-0.000149323
-0.000149549
-0.000149792
-0.00015005
-0.000150322
-0.000150606
-0.0001509
-0.000151202
-0.000151509
-0.000151816
-0.000152121
-0.000152421
-0.000152715
-0.000152998
-0.00015327
-0.000153525
-0.000153765
-0.000153987
-0.000154193
-0.000154385
-0.000154567
-0.000154744
-0.000154922
-0.000155104
-0.000155293
-0.000155488
-0.000155685
-0.000155879
-0.000156064
-0.000156234
-0.000156375
-0.000151378
-0.000151396
-0.000151442
-0.000151513
-0.000151608
-0.000151727
-0.000151867
-0.000152029
-0.000152212
-0.000152413
-0.000152633
-0.000152869
-0.00015312
-0.000153385
-0.000153662
-0.000153948
-0.000154243
-0.000154541
-0.000154838
-0.000155133
-0.000155424
-0.000155708
-0.000155981
-0.000156241
-0.000156485
-0.000156712
-0.000156922
-0.000157116
-0.000157296
-0.000157466
-0.000157632
-0.000157799
-0.000157969
-0.000158145
-0.000158324
-0.000158501
-0.000158669
-0.000158823
-0.000158952
-0.000159045
-0.000154181
-0.000154196
-0.000154239
-0.000154307
-0.000154398
-0.000154511
-0.000154646
-0.000154802
-0.000154977
-0.000155171
-0.000155382
-0.000155609
-0.000155852
-0.000156107
-0.000156375
-0.000156652
-0.000156936
-0.000157223
-0.00015751
-0.000157794
-0.000158074
-0.000158346
-0.000158607
-0.000158854
-0.000159084
-0.000159298
-0.000159494
-0.000159674
-0.000159841
-0.000159999
-0.000160153
-0.000160306
-0.000160462
-0.00016062
-0.000160777
-0.000160926
-0.000161058
-0.000161167
-0.00016124
-0.000161272
-0.000156687
-0.0001567
-0.000156739
-0.000156804
-0.00015689
-0.000156997
-0.000157126
-0.000157273
-0.00015744
-0.000157625
-0.000157826
-0.000158043
-0.000158275
-0.000158519
-0.000158776
-0.000159042
-0.000159313
-0.000159587
-0.000159861
-0.000160133
-0.0001604
-0.000160659
-0.000160906
-0.000161138
-0.000161355
-0.000161554
-0.000161736
-0.000161902
-0.000162055
-0.0001622
-0.000162339
-0.000162477
-0.000162615
-0.000162751
-0.000162878
-0.000162987
-0.000163071
-0.000163119
-0.000163118
-0.000163073
-0.000158923
-0.000158933
-0.00015897
-0.00015903
-0.000159111
-0.000159213
-0.000159333
-0.000159472
-0.000159629
-0.000159802
-0.000159992
-0.000160197
-0.000160416
-0.000160649
-0.000160892
-0.000161144
-0.000161401
-0.000161661
-0.000161922
-0.00016218
-0.000162433
-0.000162677
-0.000162909
-0.000163126
-0.000163327
-0.000163511
-0.000163678
-0.000163829
-0.000163968
-0.000164098
-0.000164222
-0.000164342
-0.000164457
-0.000164563
-0.00016465
-0.000164707
-0.000164725
-0.00016469
-0.000164593
-0.00016445
-0.000160913
-0.000160922
-0.000160956
-0.000161012
-0.000161087
-0.000161181
-0.000161293
-0.000161422
-0.000161568
-0.000161729
-0.000161906
-0.000162098
-0.000162303
-0.00016252
-0.000162749
-0.000162986
-0.000163228
-0.000163473
-0.000163719
-0.000163962
-0.000164199
-0.000164428
-0.000164644
-0.000164845
-0.00016503
-0.000165198
-0.000165349
-0.000165485
-0.000165609
-0.000165723
-0.000165829
-0.000165927
-0.000166013
-0.000166079
-0.000166112
-0.000166099
-0.000166028
-0.000165885
-0.000165669
-0.000165402
-0.00016268
-0.000162688
-0.00016272
-0.000162772
-0.000162841
-0.000162927
-0.000163029
-0.000163147
-0.000163281
-0.000163429
-0.000163591
-0.000163768
-0.000163957
-0.000164159
-0.000164371
-0.000164591
-0.000164818
-0.000165047
-0.000165277
-0.000165505
-0.000165726
-0.000165938
-0.000166138
-0.000166323
-0.000166491
-0.000166643
-0.000166777
-0.000166897
-0.000167004
-0.0001671
-0.000167185
-0.000167255
-0.000167304
-0.000167317
-0.000167279
-0.000167174
-0.000166987
-0.000166705
-0.000166339
-0.000165915
-0.000164247
-0.000164254
-0.000164283
-0.000164331
-0.000164394
-0.000164471
-0.000164564
-0.00016467
-0.00016479
-0.000164923
-0.00016507
-0.000165229
-0.000165402
-0.000165586
-0.000165781
-0.000165985
-0.000166194
-0.000166408
-0.000166622
-0.000166833
-0.000167039
-0.000167234
-0.000167417
-0.000167585
-0.000167736
-0.00016787
-0.000167987
-0.000168088
-0.000168176
-0.000168251
-0.000168309
-0.000168345
-0.000168344
-0.000168288
-0.000168157
-0.00016793
-0.000167593
-0.000167135
-0.00016658
-0.000165962
-0.000165632
-0.000165639
-0.000165666
-0.000165709
-0.000165765
-0.000165834
-0.000165916
-0.000166009
-0.000166115
-0.000166233
-0.000166362
-0.000166504
-0.000166658
-0.000166825
-0.000167002
-0.000167188
-0.00016738
-0.000167578
-0.000167776
-0.000167972
-0.000168161
-0.000168341
-0.000168507
-0.000168657
-0.000168789
-0.000168904
-0.000169001
-0.000169082
-0.000169148
-0.000169196
-0.000169221
-0.00016921
-0.000169144
-0.000168998
-0.000168744
-0.000168359
-0.000167828
-0.000167152
-0.000166364
-0.000165506
-0.000166855
-0.000166862
-0.000166887
-0.000166925
-0.000166975
-0.000167035
-0.000167105
-0.000167185
-0.000167275
-0.000167376
-0.000167487
-0.00016761
-0.000167746
-0.000167894
-0.000168053
-0.000168222
-0.000168399
-0.000168581
-0.000168764
-0.000168945
-0.000169119
-0.000169282
-0.000169431
-0.000169563
-0.000169675
-0.000169769
-0.000169843
-0.0001699
-0.000169938
-0.000169953
-0.000169934
-0.000169862
-0.00016971
-0.000169445
-0.000169033
-0.000168449
-0.000167672
-0.000166724
-0.000165647
-0.000164493
-0.000167932
-0.00016794
-0.000167963
-0.000167997
-0.000168039
-0.00016809
-0.000168148
-0.000168214
-0.000168289
-0.000168371
-0.000168463
-0.000168568
-0.000168685
-0.000168814
-0.000168956
-0.000169109
-0.000169271
-0.000169439
-0.00016961
-0.000169777
-0.000169937
-0.000170084
-0.000170215
-0.000170327
-0.000170417
-0.000170486
-0.000170534
-0.000170561
-0.000170564
-0.000170535
-0.000170459
-0.000170307
-0.000170043
-0.000169622
-0.000169006
-0.000168168
-0.000167088
-0.000165805
-0.000164372
-0.000162855
-0.000168881
-0.00016889
-0.000168911
-0.00016894
-0.000168975
-0.000169016
-0.000169062
-0.000169114
-0.000169171
-0.000169235
-0.000169309
-0.000169394
-0.000169492
-0.000169604
-0.00016973
-0.00016987
-0.000170021
-0.000170178
-0.000170338
-0.000170493
-0.00017064
-0.000170771
-0.000170884
-0.000170973
-0.000171039
-0.000171079
-0.000171095
-0.000171085
-0.000171043
-0.000170958
-0.000170806
-0.000170549
-0.000170139
-0.000169519
-0.000168642
-0.000167479
-0.000166029
-0.000164337
-0.00016247
-0.000160513
-0.000169717
-0.000169727
-0.000169746
-0.00016977
-0.000169798
-0.000169829
-0.000169863
-0.000169899
-0.000169938
-0.000169984
-0.000170039
-0.000170105
-0.000170186
-0.000170283
-0.000170398
-0.000170529
-0.000170672
-0.000170822
-0.000170973
-0.00017112
-0.000171253
-0.000171369
-0.000171462
-0.000171527
-0.000171563
-0.00017157
-0.000171546
-0.00017149
-0.000171392
-0.000171235
-0.000170985
-0.000170592
-0.000169993
-0.000169121
-0.000167925
-0.000166359
-0.000164451
-0.000162257
-0.000159862
-0.000157371
-0.000170455
-0.000170465
-0.000170482
-0.000170501
-0.000170521
-0.000170542
-0.000170563
-0.000170583
-0.000170604
-0.000170632
-0.000170669
-0.000170718
-0.000170786
-0.000170874
-0.000170982
-0.000171108
-0.000171248
-0.000171396
-0.000171543
-0.000171681
-0.000171804
-0.000171904
-0.000171974
-0.000172012
-0.000172015
-0.000171981
-0.00017191
-0.000171796
-0.000171627
-0.000171378
-0.000171003
-0.000170437
-0.0001696
-0.000168409
-0.00016681
-0.00016476
-0.000162297
-0.000159495
-0.00015646
-0.000153326
-0.000171107
-0.000171118
-0.000171131
-0.000171145
-0.000171158
-0.000171169
-0.000171176
-0.000171179
-0.000171185
-0.000171194
-0.000171214
-0.000171251
-0.000171311
-0.000171396
-0.000171504
-0.000171633
-0.000171776
-0.000171925
-0.000172072
-0.000172205
-0.000172318
-0.0001724
-0.000172447
-0.000172454
-0.000172418
-0.000172337
-0.000172208
-0.000172025
-0.000171768
-0.000171404
-0.000170873
-0.000170092
-0.000168963
-0.00016739
-0.000165285
-0.000162647
-0.000159517
-0.000155984
-0.000152176
-0.000148269
-0.000171686
-0.000171697
-0.000171708
-0.000171716
-0.00017172
-0.000171719
-0.000171711
-0.0001717
-0.000171688
-0.000171682
-0.000171691
-0.000171723
-0.000171783
-0.000171872
-0.00017199
-0.000172129
-0.000172281
-0.000172438
-0.000172587
-0.000172718
-0.000172821
-0.000172886
-0.000172907
-0.000172878
-0.000172797
-0.000172661
-0.000172465
-0.000172199
-0.000171837
-0.000171333
-0.000170611
-0.000169566
-0.000168074
-0.000166036
-0.000163345
-0.000160006
-0.000156079
-0.000151673
-0.000146935
-0.000142132
-0.000172205
-0.000172215
-0.000172222
-0.000172224
-0.000172219
-0.000172206
-0.000172182
-0.000172154
-0.000172128
-0.000172112
-0.000172117
-0.000172153
-0.000172223
-0.000172328
-0.000172463
-0.00017262
-0.00017279
-0.000172959
-0.000173115
-0.000173246
-0.000173339
-0.000173386
-0.000173378
-0.000173311
-0.000173179
-0.00017298
-0.000172707
-0.000172344
-0.000171859
-0.00017119
-0.000170242
-0.000168888
-0.000166981
-0.000164368
-0.000160987
-0.000156833
-0.000151977
-0.000146544
-0.000140747
-0.000134907
-0.000172673
-0.000172681
-0.000172684
-0.000172678
-0.000172663
-0.000172634
-0.000172597
-0.000172555
-0.000172518
-0.0001725
-0.000172512
-0.000172562
-0.000172654
-0.000172785
-0.000172949
-0.000173134
-0.000173327
-0.000173514
-0.000173681
-0.000173813
-0.000173898
-0.000173925
-0.000173887
-0.000173777
-0.00017359
-0.000173321
-0.000172962
-0.000172491
-0.000171864
-0.000171006
-0.000169797
-0.000168081
-0.000165691
-0.000162445
-0.000158276
-0.000153187
-0.000147282
-0.000140692
-0.000133719
-0.000126577
-0.0001731
-0.000173106
-0.000173103
-0.000173088
-0.000173061
-0.000173016
-0.000172965
-0.000172913
-0.000172874
-0.000172864
-0.000172895
-0.000172973
-0.0001731
-0.000173269
-0.000173472
-0.000173693
-0.000173917
-0.000174128
-0.000174308
-0.000174444
-0.000174521
-0.000174528
-0.000174457
-0.000174301
-0.000174055
-0.000173712
-0.00017326
-0.00017267
-0.000171889
-0.000170822
-0.000169325
-0.000167217
-0.000164267
-0.000160325
-0.000155295
-0.000149202
-0.000142173
-0.000134406
-0.000126058
-0.000117224
-0.000173497
-0.000173499
-0.000173488
-0.000173462
-0.000173418
-0.000173362
-0.000173299
-0.000173243
-0.000173212
-0.000173223
-0.000173287
-0.000173408
-0.000173583
-0.000173804
-0.000174055
-0.000174321
-0.000174582
-0.000174821
-0.000175019
-0.000175159
-0.000175229
-0.000175216
-0.000175111
-0.000174908
-0.000174601
-0.00017418
-0.000173631
-0.000172917
-0.000171973
-0.000170685
-0.000168886
-0.000166349
-0.000162829
-0.000158152
-0.000152193
-0.000145156
-0.00013701
-0.000128158
-0.000118262
-0.000107104
-0.000173871
-0.000173867
-0.000173847
-0.000173809
-0.000173748
-0.000173678
-0.000173609
-0.00017356
-0.00017355
-0.000173597
-0.00017371
-0.000173889
-0.000174126
-0.000174409
-0.00017472
-0.000175037
-0.000175342
-0.000175612
-0.000175829
-0.000175977
-0.00017604
-0.000176007
-0.000175869
-0.000175619
-0.00017525
-0.000174752
-0.000174106
-0.000173268
-0.000172159
-0.000170647
-0.000168541
-0.000165566
-0.000161496
-0.000156113
-0.000149267
-0.000141359
-0.000132418
-0.000122698
-0.000111408
-9.71209e-05
-0.00017423
-0.00017422
-0.000174188
-0.000174132
-0.000174059
-0.000173979
-0.000173912
-0.000173881
-0.000173908
-0.000174007
-0.000174185
-0.000174437
-0.000174749
-0.000175105
-0.000175483
-0.000175859
-0.000176211
-0.000176516
-0.000176755
-0.00017691
-0.000176968
-0.000176916
-0.000176746
-0.00017645
-0.000176022
-0.00017545
-0.000174711
-0.000173755
-0.000172494
-0.000170777
-0.000168362
-0.000164999
-0.000160437
-0.000154442
-0.000146919
-0.000138384
-0.000129175
-0.000119319
-0.000108333
-9.14619e-05
-0.000174585
-0.000174566
-0.000174521
-0.000174445
-0.000174359
-0.000174276
-0.000174222
-0.000174223
-0.000174303
-0.000174473
-0.000174732
-0.00017507
-0.000175469
-0.000175907
-0.000176359
-0.000176798
-0.0001772
-0.000177542
-0.000177805
-0.000177969
-0.000178022
-0.000177953
-0.000177753
-0.000177415
-0.000176933
-0.000176293
-0.000175469
-0.000174406
-0.000173004
-0.000171095
-0.000168427
-0.000164754
-0.000159818
-0.000153397
-0.000145491
-0.000136909
-0.000128163
-0.000119236
-0.000111225
-9.46622e-05
-3.78048e-07
-4.5479e-07
-5.26682e-07
-5.93742e-07
-6.55953e-07
-7.12479e-07
-7.61763e-07
-8.0205e-07
-8.31707e-07
-8.48703e-07
-8.48703e-07
-8.31707e-07
-8.0205e-07
-7.61763e-07
-7.12479e-07
-6.55953e-07
-5.93742e-07
-5.26682e-07
-4.5479e-07
-3.78048e-07
-2.1775e-05
-2.18682e-05
-2.19538e-05
-2.20318e-05
-2.21016e-05
-2.21618e-05
-2.2211e-05
-2.22479e-05
-2.22714e-05
-2.22815e-05
-2.22815e-05
-2.22714e-05
-2.22479e-05
-2.2211e-05
-2.21618e-05
-2.21016e-05
-2.20318e-05
-2.19538e-05
-2.18682e-05
-2.1775e-05
-3.80634e-05
-3.81659e-05
-3.82607e-05
-3.83471e-05
-3.84247e-05
-3.84925e-05
-3.8549e-05
-3.85929e-05
-3.86232e-05
-3.8639e-05
-3.8639e-05
-3.86232e-05
-3.85929e-05
-3.8549e-05
-3.84925e-05
-3.84247e-05
-3.83471e-05
-3.82607e-05
-3.81659e-05
-3.80634e-05
-5.21562e-05
-5.22684e-05
-5.23715e-05
-5.24645e-05
-5.25464e-05
-5.26167e-05
-5.26744e-05
-5.27186e-05
-5.27488e-05
-5.27643e-05
-5.27643e-05
-5.27488e-05
-5.27186e-05
-5.26744e-05
-5.26167e-05
-5.25464e-05
-5.24645e-05
-5.23715e-05
-5.22684e-05
-5.21562e-05
-6.53054e-05
-6.54292e-05
-6.55426e-05
-6.56441e-05
-6.57327e-05
-6.58076e-05
-6.58682e-05
-6.59139e-05
-6.59444e-05
-6.59596e-05
-6.59596e-05
-6.59444e-05
-6.59139e-05
-6.58682e-05
-6.58076e-05
-6.57327e-05
-6.56441e-05
-6.55426e-05
-6.54292e-05
-6.53054e-05
-7.73836e-05
-7.75194e-05
-7.76434e-05
-7.77546e-05
-7.78517e-05
-7.79338e-05
-7.80001e-05
-7.805e-05
-7.80833e-05
-7.81e-05
-7.81e-05
-7.80833e-05
-7.805e-05
-7.80001e-05
-7.79338e-05
-7.78517e-05
-7.77546e-05
-7.76434e-05
-7.75194e-05
-7.73836e-05
-8.83814e-05
-8.85292e-05
-8.86642e-05
-8.87852e-05
-8.88912e-05
-8.89808e-05
-8.90533e-05
-8.9108e-05
-8.91447e-05
-8.91631e-05
-8.91631e-05
-8.91447e-05
-8.9108e-05
-8.90533e-05
-8.89808e-05
-8.88912e-05
-8.87852e-05
-8.86642e-05
-8.85292e-05
-8.83814e-05
-9.83814e-05
-9.85407e-05
-9.86865e-05
-9.88172e-05
-9.89319e-05
-9.90292e-05
-9.91079e-05
-9.91674e-05
-9.92073e-05
-9.92273e-05
-9.92273e-05
-9.92073e-05
-9.91674e-05
-9.91079e-05
-9.90292e-05
-9.89319e-05
-9.88172e-05
-9.86865e-05
-9.85407e-05
-9.83814e-05
-0.000107454
-0.000107624
-0.00010778
-0.00010792
-0.000108043
-0.000108148
-0.000108232
-0.000108296
-0.000108339
-0.000108361
-0.000108361
-0.000108339
-0.000108296
-0.000108232
-0.000108148
-0.000108043
-0.00010792
-0.00010778
-0.000107624
-0.000107454
-0.000115661
-0.000115841
-0.000116006
-0.000116154
-0.000116285
-0.000116395
-0.000116484
-0.000116552
-0.000116598
-0.000116621
-0.000116621
-0.000116598
-0.000116552
-0.000116484
-0.000116395
-0.000116285
-0.000116154
-0.000116006
-0.000115841
-0.000115661
-0.000123061
-0.000123249
-0.000123421
-0.000123576
-0.000123711
-0.000123824
-0.000123917
-0.000123988
-0.000124035
-0.000124059
-0.000124059
-0.000124035
-0.000123988
-0.000123917
-0.000123824
-0.000123711
-0.000123576
-0.000123421
-0.000123249
-0.000123061
-0.000129711
-0.000129905
-0.000130081
-0.000130238
-0.000130374
-0.000130489
-0.000130583
-0.000130655
-0.000130703
-0.000130727
-0.000130727
-0.000130703
-0.000130655
-0.000130583
-0.000130489
-0.000130374
-0.000130238
-0.000130081
-0.000129905
-0.000129711
-0.000135664
-0.000135859
-0.000136034
-0.000136188
-0.000136321
-0.000136435
-0.000136529
-0.0001366
-0.000136647
-0.00013667
-0.00013667
-0.000136647
-0.0001366
-0.000136529
-0.000136435
-0.000136321
-0.000136188
-0.000136034
-0.000135859
-0.000135664
-0.000140968
-0.000141157
-0.000141324
-0.000141471
-0.0001416
-0.000141709
-0.000141798
-0.000141866
-0.00014191
-0.000141931
-0.000141931
-0.00014191
-0.000141866
-0.000141798
-0.000141709
-0.0001416
-0.000141471
-0.000141324
-0.000141157
-0.000140968
-0.000145665
-0.00014584
-0.000145995
-0.000146131
-0.00014625
-0.00014635
-0.000146431
-0.000146493
-0.000146533
-0.00014655
-0.00014655
-0.000146533
-0.000146493
-0.000146431
-0.00014635
-0.00014625
-0.000146131
-0.000145995
-0.00014584
-0.000145665
-0.000149794
-0.000149949
-0.000150086
-0.000150205
-0.000150308
-0.000150395
-0.000150464
-0.000150516
-0.000150548
-0.000150561
-0.000150561
-0.000150548
-0.000150516
-0.000150464
-0.000150395
-0.000150308
-0.000150205
-0.000150086
-0.000149949
-0.000149794
-0.000153391
-0.000153519
-0.000153631
-0.000153726
-0.000153807
-0.000153874
-0.000153927
-0.000153965
-0.000153988
-0.000153994
-0.000153994
-0.000153988
-0.000153965
-0.000153927
-0.000153874
-0.000153807
-0.000153726
-0.000153631
-0.000153519
-0.000153391
-0.000156488
-0.000156581
-0.000156658
-0.000156721
-0.000156772
-0.000156813
-0.000156844
-0.000156866
-0.000156876
-0.000156874
-0.000156874
-0.000156876
-0.000156866
-0.000156844
-0.000156813
-0.000156772
-0.000156721
-0.000156658
-0.000156581
-0.000156488
-0.00015911
-0.000159156
-0.000159188
-0.000159209
-0.000159223
-0.000159231
-0.000159234
-0.000159234
-0.000159229
-0.000159218
-0.000159218
-0.000159229
-0.000159234
-0.000159234
-0.000159231
-0.000159223
-0.000159209
-0.000159188
-0.000159156
-0.00015911
-0.000161277
-0.000161263
-0.000161236
-0.000161204
-0.00016117
-0.000161137
-0.000161106
-0.00016108
-0.000161057
-0.000161035
-0.000161035
-0.000161057
-0.00016108
-0.000161106
-0.000161137
-0.00016117
-0.000161204
-0.000161236
-0.000161263
-0.000161277
-0.000162999
-0.000162907
-0.000162808
-0.000162709
-0.000162615
-0.000162531
-0.00016246
-0.000162402
-0.000162357
-0.000162324
-0.000162324
-0.000162357
-0.000162402
-0.00016246
-0.000162531
-0.000162615
-0.000162709
-0.000162808
-0.000162907
-0.000162999
-0.000164277
-0.000164089
-0.000163899
-0.000163716
-0.00016355
-0.000163404
-0.000163283
-0.000163187
-0.000163118
-0.000163071
-0.000163071
-0.000163118
-0.000163187
-0.000163283
-0.000163404
-0.00016355
-0.000163716
-0.000163899
-0.000164089
-0.000164277
-0.000165104
-0.000164795
-0.000164492
-0.000164208
-0.000163953
-0.000163732
-0.000163551
-0.00016341
-0.000163311
-0.00016325
-0.00016325
-0.000163311
-0.00016341
-0.000163551
-0.000163732
-0.000163953
-0.000164208
-0.000164492
-0.000164795
-0.000165104
-0.000165461
-0.000165002
-0.00016456
-0.000164151
-0.000163788
-0.000163477
-0.000163224
-0.00016303
-0.000162897
-0.000162819
-0.000162819
-0.000162897
-0.00016303
-0.000163224
-0.000163477
-0.000163788
-0.000164151
-0.00016456
-0.000165002
-0.000165461
-0.000165315
-0.000164672
-0.000164059
-0.000163499
-0.000163005
-0.000162586
-0.000162248
-0.000161991
-0.000161817
-0.000161721
-0.000161721
-0.000161817
-0.000161991
-0.000162248
-0.000162586
-0.000163005
-0.000163499
-0.000164059
-0.000164672
-0.000165315
-0.000164621
-0.000163751
-0.000162931
-0.000162188
-0.000161538
-0.000160991
-0.000160551
-0.00016022
-0.000159997
-0.00015988
-0.00015988
-0.000159997
-0.00016022
-0.000160551
-0.000160991
-0.000161538
-0.000162188
-0.000162931
-0.000163751
-0.000164621
-0.000163316
-0.000162171
-0.000161102
-0.00016014
-0.000159304
-0.000158606
-0.000158047
-0.000157629
-0.000157351
-0.000157207
-0.000157207
-0.000157351
-0.000157629
-0.000158047
-0.000158606
-0.000159304
-0.00016014
-0.000161102
-0.000162171
-0.000163316
-0.000161325
-0.000159848
-0.00015848
-0.000157259
-0.000156207
-0.000155332
-0.000154636
-0.000154118
-0.000153774
-0.0001536
-0.0001536
-0.000153774
-0.000154118
-0.000154636
-0.000155332
-0.000156207
-0.000157259
-0.00015848
-0.000159848
-0.000161325
-0.000158554
-0.000156681
-0.00015496
-0.000153438
-0.000152135
-0.000151058
-0.000150206
-0.000149573
-0.000149155
-0.000148946
-0.000148946
-0.000149155
-0.000149573
-0.000150206
-0.000151058
-0.000152135
-0.000153438
-0.00015496
-0.000156681
-0.000158554
-0.0001549
-0.000152555
-0.000150424
-0.000148556
-0.00014697
-0.000145666
-0.00014464
-0.00014388
-0.000143379
-0.000143131
-0.000143131
-0.000143379
-0.00014388
-0.00014464
-0.000145666
-0.00014697
-0.000148556
-0.000150424
-0.000152555
-0.0001549
-0.000150243
-0.000147348
-0.00014475
-0.000142495
-0.000140591
-0.000139035
-0.000137815
-0.000136917
-0.000136329
-0.00013604
-0.00013604
-0.000136329
-0.000136917
-0.000137815
-0.000139035
-0.000140591
-0.000142495
-0.00014475
-0.000147348
-0.000150243
-0.000144472
-0.000140959
-0.000137827
-0.000135125
-0.000132863
-0.000131032
-0.000129609
-0.00012857
-0.000127894
-0.000127567
-0.000127567
-0.000127894
-0.00012857
-0.000129609
-0.000131032
-0.000132863
-0.000135125
-0.000137827
-0.000140959
-0.000144472
-0.000137521
-0.000133266
-0.000129503
-0.000126297
-0.000123649
-0.000121533
-0.000119909
-0.000118736
-0.000117981
-0.000117621
-0.000117621
-0.000117981
-0.000118736
-0.000119909
-0.000121533
-0.000123649
-0.000126297
-0.000129503
-0.000133266
-0.000137521
-0.000129279
-0.00012412
-0.000119625
-0.000115863
-0.000112817
-0.000110427
-0.000108621
-0.000107333
-0.000106515
-0.000106133
-0.000106133
-0.000106515
-0.000107333
-0.000108621
-0.000110427
-0.000112817
-0.000115863
-0.000119625
-0.00012412