/*--------------------------------*- C++ -*----------------------------------*\
  =========                 |
  \\      /  F ield         | OpenFOAM: The Open Source CFD Toolbox
   \\    /   O peration     | Website:  https://openfoam.org
    \\  /    A nd           | Version:  6
     \\/     M anipulation  |
\*---------------------------------------------------------------------------*/
FoamFile
{
    version     2.0;
    format      ascii;
    class       surfaceScalarField;
    location    "100";
    object      phi;
}
// * * * * * * * * * * * * * * * * * * * * * * * * * * * * * * * * * * * * * //

dimensions      [0 3 -1 0 0 0 0];

internalField   nonuniform List<scalar> 
17340
(
-1.30348e-10
1.30347e-10
-1.03651e-10
-2.66964e-11
-7.20896e-11
-3.15617e-11
-5.70353e-11
-1.50543e-11
-5.30966e-11
-3.93865e-12
-5.51141e-11
2.01749e-12
-6.00837e-11
4.96959e-12
-6.6681e-11
6.59729e-12
-7.42026e-11
7.52158e-12
-8.2255e-11
8.05244e-12
-9.05907e-11
8.33563e-12
-9.90297e-11
8.439e-12
-1.0742e-10
8.39069e-12
-1.15617e-10
8.19679e-12
-1.23469e-10
7.85164e-12
-1.30813e-10
7.34404e-12
-1.37472e-10
6.65927e-12
-1.43254e-10
5.78206e-12
-1.47955e-10
4.70081e-12
-1.51368e-10
3.41338e-12
-1.53303e-10
1.93504e-12
-1.53654e-10
3.50483e-13
-1.51839e-10
-1.81483e-12
-1.47511e-10
-4.32811e-12
-1.40357e-10
-7.15366e-12
-1.30141e-10
-1.02161e-11
-1.16795e-10
-1.33459e-11
-1.00502e-10
-1.6293e-11
-8.17282e-11
-1.87741e-11
-6.12339e-11
-2.04943e-11
-4.00304e-11
-2.12035e-11
-1.92642e-11
-2.07663e-11
-3.32588e-13
-1.89316e-11
1.63205e-11
-1.66531e-11
3.01521e-11
-1.38316e-11
4.10636e-11
-1.09115e-11
4.99072e-11
-8.84366e-12
5.65731e-11
-6.66584e-12
6.10736e-11
-4.50056e-12
-2.61532e-12
6.3689e-11
5.70758e-11
7.32712e-11
-3.45905e-12
3.38384e-11
-5.2133e-11
1.71122e-11
-8.56719e-11
1.84846e-11
-1.12644e-10
2.30337e-11
-1.3711e-10
2.64836e-11
-1.60791e-10
2.865e-11
-1.84487e-10
3.0294e-11
-2.08428e-10
3.14617e-11
-2.32543e-10
3.21675e-11
-2.56639e-10
3.24321e-11
-2.80466e-10
3.22663e-11
-3.03738e-10
3.16621e-11
-3.26135e-10
3.05936e-11
-3.47305e-10
2.90218e-11
-3.66863e-10
2.69021e-11
-3.84391e-10
2.4187e-11
-3.99442e-10
2.08333e-11
-4.11552e-10
1.68111e-11
-4.20258e-10
1.21192e-11
-4.2511e-10
6.78681e-12
-4.25523e-10
7.63351e-13
-4.21297e-10
-6.04012e-12
-4.11663e-10
-1.39628e-11
-3.95998e-10
-2.28186e-11
-3.73926e-10
-3.22873e-11
-3.45402e-10
-4.18702e-11
-3.108e-10
-5.08953e-11
-2.70962e-10
-5.8612e-11
-2.27188e-10
-6.42684e-11
-1.81143e-10
-6.72486e-11
-1.34659e-10
-6.72498e-11
-8.93347e-11
-6.4256e-11
-4.71398e-11
-5.8848e-11
-9.16453e-12
-5.18069e-11
2.35447e-11
-4.36207e-11
4.99737e-11
-3.52726e-11
7.06929e-11
-2.7385e-11
8.62938e-11
-2.01014e-11
-1.37505e-11
9.74289e-11
2.56398e-11
4.76313e-11
-1.84479e-11
7.79262e-11
-7.6954e-11
7.56183e-11
-1.29557e-10
7.10871e-11
-1.75927e-10
6.94042e-11
-2.18729e-10
6.92858e-11
-2.59847e-10
6.97674e-11
-2.99994e-10
7.04413e-11
-3.39452e-10
7.09202e-11
-3.78231e-10
7.09459e-11
-4.16164e-10
7.03657e-11
-4.52974e-10
6.90763e-11
-4.88302e-10
6.69893e-11
-5.21723e-10
6.40151e-11
-5.52763e-10
6.0062e-11
-5.80902e-10
5.50406e-11
-6.05581e-10
4.8866e-11
-6.26214e-10
4.14661e-11
-6.42199e-10
3.27962e-11
-6.5294e-10
2.28606e-11
-6.57868e-10
1.1715e-11
-6.56508e-10
-5.97364e-13
-6.48585e-10
-1.39624e-11
-6.3344e-10
-2.91083e-11
-6.10541e-10
-4.57177e-11
-5.79655e-10
-6.31735e-11
-5.4093e-10
-8.05947e-11
-4.94963e-10
-9.68618e-11
-4.42822e-10
-1.10754e-10
-3.86016e-10
-1.21074e-10
-3.26414e-10
-1.26851e-10
-2.66063e-10
-1.27601e-10
-2.07005e-10
-1.23314e-10
-1.51167e-10
-1.14686e-10
-1.00159e-10
-1.02815e-10
-5.48227e-11
-8.89569e-11
-1.55211e-11
-7.45743e-11
1.76187e-11
-6.05248e-11
4.48344e-11
-4.73171e-11
-3.54487e-11
6.65327e-11
-1.9413e-11
6.70444e-11
-6.22301e-11
1.20743e-10
-1.18233e-10
1.31621e-10
-1.77284e-10
1.30138e-10
-2.35271e-10
1.27391e-10
-2.9158e-10
1.25595e-10
-3.46411e-10
1.24598e-10
-3.99848e-10
1.23878e-10
-4.51877e-10
1.22949e-10
-5.02377e-10
1.21446e-10
-5.51116e-10
1.19105e-10
-5.97765e-10
1.15725e-10
-6.41915e-10
1.11139e-10
-6.83093e-10
1.05193e-10
-7.20773e-10
9.7743e-11
-7.54395e-10
8.86619e-11
-7.83367e-10
7.78386e-11
-8.0709e-10
6.51892e-11
-8.2497e-10
5.06756e-11
-8.36441e-10
3.43317e-11
-8.41002e-10
1.62766e-11
-8.38259e-10
-3.34046e-12
-8.27614e-10
-2.46078e-11
-8.08672e-10
-4.805e-11
-7.81139e-10
-7.32513e-11
-7.4498e-10
-9.93323e-11
-7.00504e-10
-1.2507e-10
-6.48418e-10
-1.48948e-10
-5.89843e-10
-1.69329e-10
-5.26298e-10
-1.84618e-10
-4.59626e-10
-1.93523e-10
-3.91849e-10
-1.95378e-10
-3.25016e-10
-1.90147e-10
-2.60991e-10
-1.78711e-10
-2.01314e-10
-1.62492e-10
-1.47016e-10
-1.43255e-10
-9.87133e-11
-1.22877e-10
-5.66077e-11
-1.0263e-10
-2.05828e-11
-8.3342e-11
-6.55254e-11
9.49388e-12
-3.11453e-11
9.81897e-11
-8.3081e-11
1.72679e-10
-1.45909e-10
1.94449e-10
-2.13077e-10
1.97306e-10
-2.80883e-10
1.95198e-10
-3.4775e-10
1.92462e-10
-4.13062e-10
1.8991e-10
-4.76508e-10
1.87324e-10
-5.37858e-10
1.843e-10
-5.96868e-10
1.80455e-10
-6.53235e-10
1.75472e-10
-7.06594e-10
1.69084e-10
-7.56517e-10
1.61062e-10
-8.02526e-10
1.51202e-10
-8.44106e-10
1.39323e-10
-8.80717e-10
1.25273e-10
-9.11807e-10
1.08929e-10
-9.3683e-10
9.02119e-11
-9.5526e-10
6.91055e-11
-9.66609e-10
4.56809e-11
-9.70436e-10
2.01039e-11
-9.66318e-10
-7.45898e-12
-9.53653e-10
-3.72725e-11
-9.3215e-10
-6.95534e-11
-9.01694e-10
-1.03707e-10
-8.62393e-10
-1.38633e-10
-8.14638e-10
-1.72825e-10
-7.59164e-10
-2.04422e-10
-6.97077e-10
-2.31416e-10
-6.29851e-10
-2.51845e-10
-5.59272e-10
-2.64102e-10
-4.87312e-10
-2.67337e-10
-4.15987e-10
-2.61473e-10
-3.47149e-10
-2.47549e-10
-2.82345e-10
-2.27296e-10
-2.22712e-10
-2.02888e-10
-1.68955e-10
-1.76633e-10
-1.21402e-10
-1.50184e-10
-8.01084e-11
-1.24636e-10
-1.00678e-10
-4.49562e-11
-3.27996e-11
1.30989e-10
-9.22012e-11
2.3208e-10
-1.62659e-10
2.64907e-10
-2.37219e-10
2.71865e-10
-3.1247e-10
2.70449e-10
-3.86718e-10
2.66711e-10
-4.59103e-10
2.62295e-10
-5.29122e-10
2.57343e-10
-5.96409e-10
2.51587e-10
-6.60632e-10
2.44678e-10
-7.21438e-10
2.36278e-10
-7.78444e-10
2.2609e-10
-8.31228e-10
2.13846e-10
-8.79338e-10
1.99312e-10
-9.22298e-10
1.82284e-10
-9.59623e-10
1.62597e-10
-9.90824e-10
1.4013e-10
-1.01543e-09
1.14814e-10
-1.03297e-09
8.66525e-11
-1.04304e-09
5.57461e-11
-1.04522e-09
2.22837e-11
-1.03911e-09
-1.35669e-11
-1.02422e-09
-5.21638e-11
-1.00032e-09
-9.34547e-11
-9.67377e-10
-1.36648e-10
-9.25563e-10
-1.80447e-10
-8.75291e-10
-2.23098e-10
-8.1729e-10
-2.62423e-10
-7.52649e-10
-2.96057e-10
-6.82826e-10
-3.21667e-10
-6.09618e-10
-3.3731e-10
-5.35029e-10
-3.41927e-10
-4.61134e-10
-3.35368e-10
-3.89853e-10
-3.18829e-10
-3.228e-10
-2.9435e-10
-2.61163e-10
-2.64525e-10
-2.05647e-10
-2.3215e-10
-1.56579e-10
-1.99252e-10
-1.13991e-10
-1.67223e-10
-1.36976e-10
-7.76928e-11
-3.40215e-11
1.65011e-10
-9.70285e-11
2.95087e-10
-1.71676e-10
3.39555e-10
-2.50445e-10
3.50634e-10
-3.29798e-10
3.49802e-10
-4.07946e-10
3.4486e-10
-4.83907e-10
3.38255e-10
-5.57063e-10
3.30499e-10
-6.26959e-10
3.21483e-10
-6.93201e-10
3.10919e-10
-7.55407e-10
2.98485e-10
-8.13193e-10
2.83875e-10
-8.66157e-10
2.6681e-10
-9.13889e-10
2.47044e-10
-9.5597e-10
2.24364e-10
-9.91978e-10
1.98605e-10
-1.0215e-09
1.69651e-10
-1.04413e-09
1.37442e-10
-1.05947e-09
1.02e-10
-1.06717e-09
6.344e-11
-1.06685e-09
2.19626e-11
-1.05814e-09
-2.22704e-11
-1.0406e-09
-6.97022e-11
-1.01406e-09
-1.20003e-10
-9.78497e-10
-1.72207e-10
-9.34102e-10
-2.24841e-10
-8.81276e-10
-2.75924e-10
-8.20735e-10
-3.22964e-10
-7.53571e-10
-3.63221e-10
-6.81282e-10
-3.93957e-10
-6.05751e-10
-4.12841e-10
-5.29115e-10
-4.18563e-10
-4.53615e-10
-4.10868e-10
-3.81325e-10
-3.91119e-10
-3.1398e-10
-3.61695e-10
-2.52838e-10
-3.25667e-10
-1.98555e-10
-2.86432e-10
-1.51366e-10
-2.46442e-10
-1.11166e-10
-2.07423e-10
-1.70588e-10
-7.75538e-11
-3.43458e-11
1.99357e-10
-9.78981e-11
3.5864e-10
-1.73306e-10
4.14962e-10
-2.52885e-10
4.30214e-10
-3.32975e-10
4.29892e-10
-4.1169e-10
4.23574e-10
-4.87957e-10
4.14522e-10
-5.61083e-10
4.03626e-10
-6.30555e-10
3.90955e-10
-6.95941e-10
3.76305e-10
-7.56848e-10
3.59392e-10
-8.12899e-10
3.39927e-10
-8.63727e-10
3.17638e-10
-9.08965e-10
2.92283e-10
-9.48255e-10
2.63653e-10
-9.8124e-10
2.31591e-10
-1.00757e-09
1.95986e-10
-1.02692e-09
1.56791e-10
-1.03896e-09
1.14036e-10
-1.04335e-09
6.78353e-11
-1.03977e-09
1.83749e-11
-1.02783e-09
-3.42059e-11
-1.00711e-09
-9.04206e-11
-9.7745e-10
-1.49666e-10
-9.38832e-10
-2.10825e-10
-8.91411e-10
-2.72262e-10
-8.35566e-10
-3.31769e-10
-7.72008e-10
-3.86522e-10
-7.01862e-10
-4.33366e-10
-6.26719e-10
-4.69101e-10
-5.48622e-10
-4.90938e-10
-4.69929e-10
-4.97255e-10
-3.93145e-10
-4.87652e-10
-3.20575e-10
-4.63689e-10
-2.54138e-10
-4.28132e-10
-1.95216e-10
-3.84589e-10
-1.44383e-10
-3.37265e-10
-1.0174e-10
-2.89084e-10
-6.7e-11
-2.42164e-10
-1.98129e-10
-3.94593e-11
-3.31754e-11
2.32532e-10
-9.47318e-11
4.20196e-10
-1.67974e-10
4.88205e-10
-2.45342e-10
5.07582e-10
-3.23153e-10
5.07702e-10
-3.99469e-10
4.99891e-10
-4.73166e-10
4.88218e-10
-5.43503e-10
4.73963e-10
-6.09933e-10
4.57385e-10
-6.72008e-10
4.3838e-10
-7.29335e-10
4.16718e-10
-7.81553e-10
3.92145e-10
-8.28329e-10
3.64413e-10
-8.69342e-10
3.33296e-10
-9.04286e-10
2.98598e-10
-9.32866e-10
2.6017e-10
-9.54793e-10
2.17913e-10
-9.69791e-10
1.71789e-10
-9.77585e-10
1.2183e-10
-9.77877e-10
6.81269e-11
-9.70308e-10
1.08057e-11
-9.54456e-10
-5.00574e-11
-9.29932e-10
-1.14945e-10
-8.96551e-10
-1.83048e-10
-8.54255e-10
-2.53121e-10
-8.03153e-10
-3.23364e-10
-7.436e-10
-3.91323e-10
-6.76314e-10
-4.53808e-10
-6.02486e-10
-5.07194e-10
-5.23851e-10
-5.47736e-10
-4.42665e-10
-5.72123e-10
-3.6159e-10
-5.7833e-10
-2.83474e-10
-5.65768e-10
-2.10909e-10
-5.36253e-10
-1.46017e-10
-4.93024e-10
-9.03764e-11
-4.40229e-10
-4.45039e-11
-3.83138e-10
-8.38325e-12
-3.25205e-10
1.85477e-11
-2.69095e-10
-2.16799e-10
3.72176e-11
-3.06957e-11
2.63228e-10
-8.80471e-11
4.77548e-10
-1.56598e-10
5.56756e-10
-2.29152e-10
5.80135e-10
-3.02103e-10
5.80654e-10
-3.7351e-10
5.71298e-10
-4.42222e-10
5.5693e-10
-5.07476e-10
5.39217e-10
-5.6871e-10
5.18619e-10
-6.25471e-10
4.95141e-10
-6.77375e-10
4.68622e-10
-7.24084e-10
4.38854e-10
-7.65294e-10
4.05623e-10
-8.00725e-10
3.68728e-10
-8.30116e-10
3.27989e-10
-8.53217e-10
2.8327e-10
-8.69783e-10
2.34479e-10
-8.79575e-10
1.81581e-10
-8.82352e-10
1.24607e-10
-8.77849e-10
6.36233e-11
-8.65677e-10
-1.36554e-12
-8.45254e-10
-7.04807e-11
-8.16284e-10
-1.43915e-10
-7.78521e-10
-2.20811e-10
-7.31843e-10
-2.99799e-10
-6.76301e-10
-3.78905e-10
-6.12247e-10
-4.55377e-10
-5.40424e-10
-5.25631e-10
-4.62128e-10
-5.8549e-10
-3.79301e-10
-6.30564e-10
-2.94436e-10
-6.56989e-10
-2.10571e-10
-6.62195e-10
-1.3093e-10
-6.4541e-10
-5.842e-11
-6.08763e-10
4.67038e-12
-5.56115e-10
5.66183e-11
-4.92177e-10
9.65199e-11
-4.23039e-10
1.24644e-10
-3.53329e-10
1.41957e-10
-2.86407e-10
-2.24549e-10
1.49707e-10
-2.71974e-11
2.90425e-10
-7.85325e-11
5.28883e-10
-1.40311e-10
6.18534e-10
-2.05916e-10
6.45741e-10
-2.7191e-10
6.46647e-10
-3.36384e-10
6.35772e-10
-3.98186e-10
6.18732e-10
-4.56546e-10
5.97577e-10
-5.10899e-10
5.72972e-10
-5.60799e-10
5.4504e-10
-6.05874e-10
5.13698e-10
-6.45808e-10
4.78788e-10
-6.80325e-10
4.40139e-10
-7.09177e-10
3.9758e-10
-7.32136e-10
3.50948e-10
-7.48981e-10
3.00115e-10
-7.59491e-10
2.44989e-10
-7.63431e-10
1.85521e-10
-7.60541e-10
1.21717e-10
-7.50539e-10
5.36212e-11
-7.33166e-10
-1.87379e-11
-7.07669e-10
-9.59785e-11
-6.73629e-10
-1.77954e-10
-6.30773e-10
-2.63667e-10
-5.78936e-10
-3.51636e-10
-5.18103e-10
-4.39738e-10
-4.48695e-10
-5.24786e-10
-3.71497e-10
-6.02828e-10
-2.8795e-10
-6.69037e-10
-2.00313e-10
-7.182e-10
-1.11308e-10
-7.45994e-10
-2.42775e-11
-7.49225e-10
5.71802e-11
-7.26867e-10
1.29539e-10
-6.81122e-10
1.90272e-10
-6.16848e-10
2.38027e-10
-5.39932e-10
2.71792e-10
-4.56805e-10
2.91624e-10
-3.73161e-10
2.985e-10
-2.93283e-10
-2.20025e-10
2.93976e-10
-2.29538e-11
3.13379e-10
-6.69161e-11
5.72845e-10
-1.20339e-10
6.71957e-10
-1.77364e-10
7.02766e-10
-2.34802e-10
7.04085e-10
-2.90813e-10
6.91784e-10
-3.44264e-10
6.72183e-10
-3.9439e-10
6.47703e-10
-4.40633e-10
6.19215e-10
-4.82556e-10
5.86964e-10
-5.19805e-10
5.50947e-10
-5.52083e-10
5.11066e-10
-5.79134e-10
4.6719e-10
-6.00734e-10
4.1918e-10
-6.16675e-10
3.66889e-10
-6.26752e-10
3.10193e-10
-6.30748e-10
2.48985e-10
-6.28415e-10
1.83187e-10
-6.19448e-10
1.12751e-10
-6.03496e-10
3.7669e-11
-5.80235e-10
-4.19995e-11
-5.48906e-10
-1.27308e-10
-5.08995e-10
-2.17865e-10
-4.60191e-10
-3.12471e-10
-4.0231e-10
-4.09517e-10
-3.35198e-10
-5.06849e-10
-2.59529e-10
-6.00455e-10
-1.76194e-10
-6.86162e-10
-8.67695e-11
-7.58462e-10
6.29519e-12
-8.11265e-10
9.95518e-11
-8.39251e-10
1.89082e-10
-8.38755e-10
2.71721e-10
-8.09507e-10
3.44229e-10
-7.5363e-10
4.03552e-10
-6.76171e-10
4.47617e-10
-5.83997e-10
4.75295e-10
-4.84483e-10
4.86581e-10
-3.84447e-10
4.82495e-10
-2.89197e-10
-2.0237e-10
4.6484e-10
-1.82445e-11
3.31623e-10
-5.39434e-11
6.08544e-10
-9.79319e-11
7.15946e-10
-1.45246e-10
7.5008e-10
-1.93014e-10
7.51852e-10
-2.39506e-10
7.38276e-10
-2.83622e-10
7.16299e-10
-3.24615e-10
6.88696e-10
-3.61936e-10
6.56537e-10
-3.95164e-10
6.20192e-10
-4.23958e-10
5.7974e-10
-4.48033e-10
5.35141e-10
-4.67149e-10
4.86306e-10
-4.81091e-10
4.33122e-10
-4.89656e-10
3.75454e-10
-4.92635e-10
3.13172e-10
-4.89794e-10
2.46143e-10
-4.80842e-10
1.74235e-10
-4.654e-10
9.73094e-11
-4.4297e-10
1.52384e-11
-4.1306e-10
-7.19087e-11
-3.75077e-10
-1.65291e-10
-3.28294e-10
-2.64648e-10
-2.72463e-10
-3.68303e-10
-2.07515e-10
-4.74464e-10
-1.33114e-10
-5.8125e-10
-5.01996e-11
-6.8337e-10
3.99411e-11
-7.76303e-10
1.35051e-10
-8.53571e-10
2.32379e-10
-9.08593e-10
3.29101e-10
-9.35973e-10
4.21953e-10
-9.31607e-10
5.06998e-10
-8.94552e-10
5.80377e-10
-8.27008e-10
6.38622e-10
-7.34416e-10
6.79195e-10
-6.24571e-10
7.00781e-10
-5.06068e-10
7.03328e-10
-3.86993e-10
6.87927e-10
-2.73797e-10
-1.71039e-10
6.56596e-10
-1.33437e-11
3.44967e-10
-4.03363e-11
6.35536e-10
-7.42936e-11
7.49903e-10
-1.11238e-10
7.87024e-10
-1.4868e-10
7.89295e-10
-1.85033e-10
7.74629e-10
-2.19251e-10
7.50517e-10
-2.50609e-10
7.20053e-10
-2.78573e-10
6.84501e-10
-3.02733e-10
6.44351e-10
-3.22756e-10
5.99764e-10
-3.38369e-10
5.50753e-10
-3.49326e-10
4.97264e-10
-3.55402e-10
4.39199e-10
-3.56382e-10
3.76434e-10
-3.5203e-10
3.0882e-10
-3.42051e-10
2.36165e-10
-3.26044e-10
1.58228e-10
-3.03445e-10
7.47102e-11
-2.73798e-10
-1.44089e-11
-2.36411e-10
-1.09296e-10
-1.9078e-10
-2.10922e-10
-1.35959e-10
-3.19469e-10
-7.18826e-11
-4.32379e-10
1.60401e-12
-5.47951e-10
8.37849e-11
-6.63431e-10
1.73498e-10
-7.73083e-10
2.69356e-10
-8.72161e-10
3.69675e-10
-9.53891e-10
4.72217e-10
-1.01113e-09
5.73796e-10
-1.03755e-09
6.70671e-10
-1.02848e-09
7.58511e-10
-9.82392e-10
8.32951e-10
-9.01448e-10
8.90102e-10
-7.91567e-10
9.27074e-10
-6.61542e-10
9.4235e-10
-5.21345e-10
9.35845e-10
-3.80488e-10
9.08748e-10
-2.467e-10
-1.25615e-10
8.63323e-10
-8.50113e-12
3.53468e-10
-2.67531e-11
6.53788e-10
-5.05249e-11
7.73675e-10
-7.68756e-11
8.13375e-10
-1.03753e-10
8.16172e-10
-1.29745e-10
8.00622e-10
-1.53877e-10
7.74649e-10
-1.75451e-10
7.41627e-10
-1.93947e-10
7.02997e-10
-2.0896e-10
6.59364e-10
-2.2016e-10
6.10964e-10
-2.27268e-10
5.57861e-10
-2.30024e-10
5.0002e-10
-2.28153e-10
4.37327e-10
-2.21407e-10
3.69688e-10
-2.09487e-10
2.969e-10
-1.92005e-10
2.18682e-10
-1.684e-10
1.34624e-10
-1.37761e-10
4.40705e-11
-9.97799e-11
-5.23898e-11
-5.36901e-11
-1.55385e-10
1.24599e-12
-2.65858e-10
6.5199e-11
-3.83422e-10
1.38079e-10
-5.05259e-10
2.1966e-10
-6.29532e-10
3.08999e-10
-7.52771e-10
4.05742e-10
-8.69825e-10
5.0845e-10
-9.74869e-10
6.15293e-10
-1.06073e-09
7.23819e-10
-1.11966e-09
8.3067e-10
-1.1444e-09
9.31725e-10
-1.12954e-09
1.02228e-09
-1.07294e-09
1.09753e-09
-9.76706e-10
1.15321e-09
-8.47248e-10
1.18612e-09
-6.94444e-10
1.19455e-09
-5.29776e-10
1.1784e-09
-3.64344e-10
1.13903e-09
-2.07328e-10
-6.55248e-11
1.07894e-09
-3.93399e-12
3.57402e-10
-1.37648e-11
6.63619e-10
-2.75856e-11
7.87496e-10
-4.35084e-11
8.29298e-10
-5.99554e-11
8.32619e-10
-7.57201e-11
8.16386e-10
-8.99086e-11
7.88838e-10
-1.01855e-10
7.53573e-10
-1.11046e-10
7.12188e-10
-1.17072e-10
6.6539e-10
-1.1959e-10
6.13482e-10
-1.18296e-10
5.56567e-10
-1.12899e-10
4.94623e-10
-1.03021e-10
4.2745e-10
-8.83632e-11
3.5503e-10
-6.85071e-11
2.77044e-10
-4.28874e-11
1.93062e-10
-1.07365e-11
1.02473e-10
2.89328e-11
4.4013e-12
7.65553e-11
-1.00012e-10
1.32533e-10
-2.11363e-10
1.97242e-10
-3.30568e-10
2.70497e-10
-4.56677e-10
3.52617e-10
-5.87378e-10
4.43145e-10
-7.2006e-10
5.41277e-10
-8.50902e-10
6.46231e-10
-9.74779e-10
7.56624e-10
-1.08526e-09
8.70511e-10
-1.17462e-09
9.85233e-10
-1.23438e-09
1.09724e-09
-1.25641e-09
1.20213e-09
-1.23442e-09
1.29485e-09
-1.16567e-09
1.37025e-09
-1.0521e-09
1.42368e-09
-9.00676e-10
1.45166e-09
-7.22424e-10
1.45235e-09
-5.30465e-10
1.42563e-09
-3.37628e-10
1.37292e-09
-1.54615e-10
1.09151e-11
1.29648e-09
1.94414e-13
3.57208e-10
-1.82627e-12
6.6564e-10
-6.26265e-12
7.91932e-10
-1.22657e-11
8.35301e-10
-1.87503e-11
8.39103e-10
-2.47308e-11
8.22367e-10
-2.94047e-11
7.93511e-10
-3.21346e-11
7.56303e-10
-3.24052e-11
7.12459e-10
-2.97835e-11
6.62769e-10
-2.38843e-11
6.07583e-10
-1.43379e-11
5.47021e-10
-7.5653e-13
4.81042e-10
1.72654e-11
4.09428e-10
4.01784e-11
3.32117e-10
6.85782e-11
2.48644e-10
1.03274e-10
1.58367e-10
1.45255e-10
6.0492e-11
1.94773e-10
-4.51164e-11
2.52487e-10
-1.57727e-10
3.19135e-10
-2.78011e-10
3.94768e-10
-4.06201e-10
4.7914e-10
-5.41048e-10
5.7206e-10
-6.80298e-10
6.72938e-10
-8.20938e-10
7.80907e-10
-9.58871e-10
8.9488e-10
-1.08875e-09
1.01336e-09
-1.20374e-09
1.13429e-09
-1.29555e-09
1.25488e-09
-1.35497e-09
1.37143e-09
-1.37295e-09
1.4793e-09
-1.34229e-09
1.57318e-09
-1.25955e-09
1.64758e-09
-1.1265e-09
1.69754e-09
-9.50637e-10
1.71934e-09
-7.44228e-10
1.71103e-09
-5.22149e-10
1.67257e-09
-2.99166e-10
1.60564e-09
-8.76843e-11
1.04525e-10
1.51203e-09
3.84465e-12
3.53363e-10
8.79982e-12
6.60685e-10
1.287e-11
7.87862e-10
1.59624e-11
8.32208e-10
1.86789e-11
8.36387e-10
2.17734e-11
8.19272e-10
2.59523e-11
7.89333e-10
3.18287e-11
7.50427e-10
3.99354e-11
7.04352e-10
5.07505e-11
6.51954e-10
6.47266e-11
5.93607e-10
8.23177e-11
5.29429e-10
1.03999e-10
4.5936e-10
1.30237e-10
3.83189e-10
1.61711e-10
3.00643e-10
1.99196e-10
2.11159e-10
2.43645e-10
1.13918e-10
2.96296e-10
7.84176e-12
3.57407e-10
-1.06228e-10
4.27407e-10
-2.27728e-10
5.06737e-10
-3.5734e-10
5.95256e-10
-4.9472e-10
6.92484e-10
-6.38276e-10
7.9776e-10
-7.85574e-10
9.10193e-10
-9.33371e-10
1.0287e-09
-1.07738e-09
1.15198e-09
-1.21203e-09
1.27841e-09
-1.33017e-09
1.40585e-09
-1.423e-09
1.53145e-09
-1.48057e-09
1.65138e-09
-1.49289e-09
1.76087e-09
-1.45179e-09
1.85438e-09
-1.35306e-09
1.92616e-09
-1.19828e-09
1.97099e-09
-9.95465e-10
1.98495e-09
-7.58184e-10
1.96594e-09
-5.03142e-10
1.91379e-09
-2.47013e-10
1.82976e-09
-3.65542e-12
2.16129e-10
1.71815e-09
7.01708e-12
3.46346e-10
1.79955e-11
6.49706e-10
2.94577e-11
7.764e-10
4.0543e-11
8.21123e-10
5.14224e-11
8.25507e-10
6.26256e-11
8.08069e-10
7.4762e-11
7.77196e-10
8.84262e-11
7.36763e-10
1.04182e-10
6.88596e-10
1.22575e-10
6.33561e-10
1.44152e-10
5.7203e-10
1.69486e-10
5.04095e-10
1.99199e-10
4.29648e-10
2.33979e-10
3.48409e-10
2.74723e-10
2.59899e-10
3.22551e-10
1.6333e-10
3.78838e-10
5.7631e-11
4.44184e-10
-5.75035e-11
5.18791e-10
-1.80835e-10
6.03311e-10
-3.12249e-10
6.97655e-10
-4.51684e-10
8.01179e-10
-5.98245e-10
9.12935e-10
-7.50032e-10
1.03179e-09
-9.04429e-10
1.15649e-09
-1.05807e-09
1.28571e-09
-1.20659e-09
1.41798e-09
-1.3443e-09
1.55161e-09
-1.4638e-09
1.68444e-09
-1.55583e-09
1.81359e-09
-1.60972e-09
1.93521e-09
-1.61451e-09
2.04442e-09
-1.561e-09
2.13553e-09
-1.44417e-09
2.20257e-09
-1.26533e-09
2.24014e-09
-1.03303e-09
2.24419e-09
-7.62237e-10
2.21272e-09
-4.71671e-10
2.14586e-09
-1.8015e-10
2.04377e-09
9.84349e-11
3.47964e-10
1.91194e-09
9.65869e-12
3.36687e-10
2.56294e-11
6.33736e-10
4.32248e-11
7.58804e-10
6.0989e-11
8.03359e-10
7.87518e-11
8.07744e-10
9.68562e-11
7.89965e-10
1.15834e-10
7.58218e-10
1.3628e-10
7.16316e-10
1.58819e-10
6.66057e-10
1.84102e-10
6.08278e-10
2.12823e-10
5.43308e-10
2.45746e-10
4.71173e-10
2.83725e-10
3.91669e-10
3.27757e-10
3.04377e-10
3.79068e-10
2.08589e-10
4.3913e-10
1.03268e-10
5.09542e-10
-1.27818e-11
5.90382e-10
-1.38343e-10
6.81736e-10
-2.72188e-10
7.8366e-10
-4.14173e-10
8.95475e-10
-5.63499e-10
1.01592e-09
-7.18689e-10
1.14348e-09
-8.77588e-10
1.27654e-09
-1.03749e-09
1.41353e-09
-1.19506e-09
1.5529e-09
-1.34597e-09
1.69314e-09
-1.48454e-09
1.83254e-09
-1.6032e-09
1.969e-09
-1.69229e-09
2.09968e-09
-1.7404e-09
2.22074e-09
-1.73557e-09
2.32726e-09
-1.66752e-09
2.41343e-09
-1.53033e-09
2.47314e-09
-1.32504e-09
2.50083e-09
-1.06073e-09
2.49236e-09
-7.53764e-10
2.44557e-09
-4.24883e-10
2.36036e-09
-9.49374e-11
2.23866e-09
2.20136e-10
5.00573e-10
2.08605e-09
1.17247e-11
3.24963e-10
3.15737e-11
6.13887e-10
5.39279e-11
7.3645e-10
7.69012e-11
7.80386e-10
1.00085e-10
7.84561e-10
1.23698e-10
7.66352e-10
1.48237e-10
7.33679e-10
1.74341e-10
6.90211e-10
2.02747e-10
6.37651e-10
2.34279e-10
5.76746e-10
2.69867e-10
5.07721e-10
3.10563e-10
4.30476e-10
3.57585e-10
3.44648e-10
4.12361e-10
2.49601e-10
4.76623e-10
1.44326e-10
5.5249e-10
2.7401e-11
6.4039e-10
-1.00682e-10
7.39933e-10
-2.37886e-10
8.51199e-10
-3.83454e-10
9.73306e-10
-5.36281e-10
1.10468e-09
-6.94874e-10
1.24334e-09
-8.57346e-10
1.38718e-09
-1.02143e-09
1.53422e-09
-1.18453e-09
1.68262e-09
-1.34346e-09
1.83077e-09
-1.49413e-09
1.97717e-09
-1.63094e-09
2.12022e-09
-1.74624e-09
2.25792e-09
-1.82999e-09
2.38755e-09
-1.87003e-09
2.50532e-09
-1.85334e-09
2.60626e-09
-1.76846e-09
2.6845e-09
-1.60857e-09
2.73384e-09
-1.37438e-09
2.74868e-09
-1.07557e-09
2.72488e-09
-7.29964e-10
2.66025e-09
-3.60252e-10
2.55391e-09
1.14053e-11
2.41035e-09
3.63692e-10
6.75574e-10
2.23535e-09
1.31841e-11
3.11779e-10
3.57283e-11
5.91342e-10
6.13722e-11
7.10806e-10
8.79679e-11
7.5379e-10
1.14981e-10
7.57547e-10
1.42588e-10
7.38745e-10
1.71323e-10
7.04945e-10
2.01941e-10
6.59594e-10
2.35375e-10
6.04217e-10
2.72731e-10
5.3939e-10
3.15298e-10
4.65154e-10
3.64572e-10
3.81202e-10
4.22291e-10
2.86929e-10
4.90509e-10
1.81383e-10
5.71686e-10
6.31487e-11
6.67156e-10
-6.8069e-11
7.7631e-10
-2.09835e-10
8.98707e-10
-3.60284e-10
1.03316e-09
-5.1791e-10
1.17772e-09
-6.80841e-10
1.3299e-09
-8.47054e-10
1.48704e-09
-1.01448e-09
1.64659e-09
-1.18098e-09
1.8063e-09
-1.34423e-09
1.96427e-09
-1.50143e-09
2.11894e-09
-1.64879e-09
2.26894e-09
-1.78094e-09
2.41285e-09
-1.89016e-09
2.54887e-09
-1.96601e-09
2.67438e-09
-1.99555e-09
2.78566e-09
-1.96462e-09
2.87773e-09
-1.86052e-09
2.94463e-09
-1.67547e-09
2.98015e-09
-1.4099e-09
2.97873e-09
-1.07415e-09
2.93643e-09
-6.87673e-10
2.85148e-09
-2.75301e-10
2.72203e-09
1.40861e-10
2.55376e-09
5.31964e-10
8.75056e-10
2.35427e-09
1.40186e-11
2.9776e-10
3.80258e-11
5.67335e-10
6.54232e-11
6.83409e-10
9.39783e-11
7.25235e-10
1.23159e-10
7.28366e-10
1.53205e-10
7.08699e-10
1.84787e-10
6.73362e-10
2.18891e-10
6.2549e-10
2.56778e-10
5.66329e-10
2.99991e-10
4.96178e-10
3.50358e-10
4.14787e-10
4.10016e-10
3.21544e-10
4.81438e-10
2.15507e-10
5.67505e-10
9.53155e-11
6.7066e-10
-4.00057e-11
7.90353e-10
-1.87762e-10
9.25355e-10
-3.44837e-10
1.07411e-09
-5.09038e-10
1.23408e-09
-6.77883e-10
1.40217e-09
-8.48927e-10
1.57508e-09
-1.01996e-09
1.74964e-09
-1.18905e-09
1.92307e-09
-1.35442e-09
2.09307e-09
-1.51423e-09
2.25782e-09
-1.66618e-09
2.41594e-09
-1.80692e-09
2.56631e-09
-1.93131e-09
2.70776e-09
-2.0316e-09
2.83869e-09
-2.09694e-09
2.95663e-09
-2.11349e-09
3.05788e-09
-2.06587e-09
3.13742e-09
-1.94006e-09
3.18924e-09
-1.7273e-09
3.2071e-09
-1.42776e-09
3.18551e-09
-1.05255e-09
3.12057e-09
-6.2273e-10
3.01023e-09
-1.64969e-10
2.85469e-09
2.96409e-10
2.66007e-09
7.2658e-10
1.10009e-09
2.43504e-09
1.42206e-11
2.83539e-10
3.84333e-11
5.43122e-10
6.60173e-11
6.55825e-10
9.48474e-11
6.96405e-10
1.24541e-10
6.98673e-10
1.55537e-10
6.77704e-10
1.88787e-10
6.40112e-10
2.25667e-10
5.8861e-10
2.67963e-10
5.24033e-10
3.17873e-10
4.46268e-10
3.78015e-10
3.54645e-10
4.51426e-10
2.48133e-10
5.41543e-10
1.25389e-10
6.51991e-10
-1.51319e-11
7.82531e-10
-1.70546e-10
9.31175e-10
-3.36406e-10
1.09584e-09
-5.09501e-10
1.27325e-09
-6.86448e-10
1.4595e-09
-8.64139e-10
1.65055e-09
-1.03998e-09
1.84255e-09
-1.21196e-09
2.03211e-09
-1.37861e-09
2.21643e-09
-1.53874e-09
2.39334e-09
-1.69114e-09
2.56129e-09
-1.83412e-09
2.71917e-09
-1.9648e-09
2.86618e-09
-2.07831e-09
3.00141e-09
-2.16684e-09
3.12351e-09
-2.21904e-09
3.23011e-09
-2.22008e-09
3.31751e-09
-2.15327e-09
3.38062e-09
-2.00317e-09
3.41333e-09
-1.76001e-09
3.40944e-09
-1.42387e-09
3.36365e-09
-1.00676e-09
3.27224e-09
-5.31316e-10
3.13196e-09
-2.4687e-11
2.94645e-09
4.81917e-10
2.72261e-09
9.50414e-10
1.35229e-09
2.47041e-09
1.37935e-11
2.69746e-10
3.69599e-11
5.19956e-10
6.31846e-11
6.296e-10
9.06614e-11
6.68928e-10
1.19332e-10
6.70002e-10
1.50011e-10
6.47025e-10
1.84128e-10
6.05995e-10
2.23684e-10
5.49054e-10
2.71255e-10
4.76462e-10
3.30003e-10
3.87519e-10
4.03653e-10
2.80995e-10
4.96448e-10
1.55338e-10
6.13131e-10
8.70667e-12
7.5416e-10
-1.56161e-10
9.16915e-10
-3.33301e-10
1.09863e-09
-5.18121e-10
1.29512e-09
-7.0599e-10
1.50152e-09
-8.9285e-10
1.71288e-09
-1.0755e-09
1.92457e-09
-1.25166e-09
2.13254e-09
-1.41993e-09
2.33345e-09
-1.57952e-09
2.52471e-09
-1.73e-09
2.70445e-09
-1.87089e-09
2.87145e-09
-2.00112e-09
3.02497e-09
-2.11833e-09
3.16454e-09
-2.21788e-09
3.28957e-09
-2.29187e-09
3.39887e-09
-2.32834e-09
3.49016e-09
-2.31138e-09
3.5597e-09
-2.22281e-09
3.60223e-09
-2.0457e-09
3.61155e-09
-1.76933e-09
3.58149e-09
-1.3938e-09
3.50702e-09
-9.32293e-10
3.38492e-09
-4.09221e-10
3.21077e-09
1.49468e-10
2.99087e-09
7.0181e-10
2.7344e-09
1.20689e-09
1.63363e-09
2.45306e-09
1.27556e-11
2.5699e-10
3.36731e-11
4.99038e-10
5.70877e-11
6.06186e-10
8.17483e-11
6.44267e-10
1.08134e-10
6.43616e-10
1.37665e-10
6.17494e-10
1.72522e-10
5.71138e-10
2.15646e-10
5.05931e-10
2.70771e-10
4.21337e-10
3.4242e-10
3.1587e-10
4.35828e-10
1.87587e-10
5.56849e-10
3.43173e-11
7.07214e-10
-1.41659e-10
8.83873e-10
-3.3282e-10
1.08317e-09
-5.32603e-10
1.29986e-09
-7.34802e-10
1.52794e-09
-9.34073e-10
1.76143e-09
-1.12634e-09
1.99481e-09
-1.30888e-09
2.2233e-09
-1.48016e-09
2.44297e-09
-1.6396e-09
2.65074e-09
-1.78729e-09
2.84439e-09
-1.92364e-09
3.02243e-09
-2.04893e-09
3.18405e-09
-2.16274e-09
3.32888e-09
-2.26316e-09
3.4568e-09
-2.3458e-09
3.56749e-09
-2.40255e-09
3.65992e-09
-2.42077e-09
3.73184e-09
-2.3833e-09
3.77936e-09
-2.27033e-09
3.79702e-09
-2.06336e-09
3.77845e-09
-1.75076e-09
3.71745e-09
-1.33281e-09
3.60901e-09
-8.23859e-10
3.44944e-09
-2.49644e-10
3.23671e-09
3.62195e-10
2.97865e-09
9.59872e-10
2.68664e-09
1.4989e-09
1.94568e-09
2.3746e-09
1.11469e-11
2.45843e-10
2.87243e-11
4.81461e-10
4.80758e-11
5.86834e-10
6.8771e-11
6.23572e-10
9.20898e-11
6.20297e-10
1.2036e-10
5.89224e-10
1.56872e-10
5.34626e-10
2.05931e-10
4.56871e-10
2.72882e-10
3.54387e-10
3.64072e-10
2.2468e-10
4.86695e-10
6.49646e-11
6.4431e-10
-1.23298e-10
8.33838e-10
-3.31187e-10
1.05045e-09
-5.49433e-10
1.28773e-09
-7.69883e-10
1.53844e-09
-9.85506e-10
1.7954e-09
-1.19104e-09
2.05212e-09
-1.38306e-09
2.30297e-09
-1.55974e-09
2.54339e-09
-1.72057e-09
2.76978e-09
-1.86598e-09
2.97948e-09
-1.997e-09
3.1707e-09
-2.11486e-09
3.34239e-09
-2.22062e-09
3.49413e-09
-2.31447e-09
3.62594e-09
-2.39498e-09
3.73801e-09
-2.45786e-09
3.83024e-09
-2.49479e-09
3.90174e-09
-2.49227e-09
3.95017e-09
-2.43174e-09
3.97144e-09
-2.2916e-09
3.9598e-09
-2.05171e-09
3.90867e-09
-1.69962e-09
3.81192e-09
-1.23606e-09
3.66471e-09
-6.7665e-10
3.46042e-09
-4.53559e-11
3.20286e-09
6.19762e-10
2.90161e-09
1.26112e-09
2.57066e-09
1.82985e-09
2.28992e-09
2.22642e-09
9.03809e-12
2.36805e-10
2.23783e-11
4.68121e-10
3.67426e-11
5.7247e-10
5.2823e-11
6.07492e-10
7.3024e-11
6.00096e-10
1.0097e-10
5.61278e-10
1.41528e-10
4.94068e-10
2.00892e-10
3.97507e-10
2.86503e-10
2.68775e-10
4.07104e-10
1.0408e-10
5.68806e-10
-9.6738e-11
7.69015e-10
-3.23506e-10
1.0016e-09
-5.63776e-10
1.25899e-09
-8.06816e-10
1.53251e-09
-1.04341e-09
1.8137e-09
-1.2667e-09
2.09492e-09
-1.47226e-09
2.36966e-09
-1.6578e-09
2.63261e-09
-1.82269e-09
2.87959e-09
-1.96755e-09
3.10748e-09
-2.09388e-09
3.31411e-09
-2.20362e-09
3.49812e-09
-2.29888e-09
3.6589e-09
-2.3814e-09
3.79641e-09
-2.45198e-09
3.91102e-09
-2.50958e-09
4.00317e-09
-2.55002e-09
4.07296e-09
-2.56458e-09
4.11952e-09
-2.53883e-09
4.14038e-09
-2.4526e-09
4.13113e-09
-2.28234e-09
4.08562e-09
-2.0062e-09
3.99697e-09
-1.61097e-09
3.85885e-09
-1.09794e-09
3.6661e-09
-4.83903e-10
3.41062e-09
2.10122e-10
3.10165e-09
9.28738e-10
2.75166e-09
1.61111e-09
2.37792e-09
2.20358e-09
2.66775e-09
2.0001e-09
6.53886e-12
2.30266e-10
1.50356e-11
4.59624e-10
2.39714e-11
5.63534e-10
3.5497e-11
5.95966e-10
5.35374e-11
5.82056e-10
8.34958e-11
5.3132e-10
1.32373e-10
4.45191e-10
2.08873e-10
3.21007e-10
3.23007e-10
1.54642e-10
4.84405e-10
-5.73181e-11
6.91746e-10
-3.0408e-10
9.37775e-10
-5.69535e-10
1.21371e-09
-8.39714e-10
1.5094e-09
-1.1025e-09
1.81488e-09
-1.3489e-09
2.12127e-09
-1.57308e-09
2.42102e-09
-1.77201e-09
2.70799e-09
-1.94477e-09
2.97736e-09
-2.09206e-09
3.2255e-09
-2.21569e-09
3.44978e-09
-2.31816e-09
3.64852e-09
-2.40236e-09
3.8208e-09
-2.47116e-09
3.9664e-09
-2.52699e-09
4.08562e-09
-2.5712e-09
4.17911e-09
-2.60307e-09
4.24754e-09
-2.61845e-09
4.29111e-09
-2.60814e-09
4.30888e-09
-2.5566e-09
4.29817e-09
-2.44189e-09
4.25415e-09
-2.23831e-09
4.17018e-09
-1.92224e-09
4.03896e-09
-1.47975e-09
3.85354e-09
-9.12527e-10
3.60575e-09
-2.36108e-10
3.29233e-09
5.23544e-10
2.92503e-09
1.29603e-09
2.52033e-09
2.01581e-09
2.09977e-09
2.62415e-09
3.08011e-09
1.68741e-09
3.79894e-12
2.26468e-10
7.23627e-12
4.56187e-10
1.09433e-11
5.59827e-10
1.88928e-11
5.88017e-10
3.70097e-11
5.63939e-10
7.30526e-11
4.95277e-10
1.36739e-10
3.81505e-10
2.39734e-10
2.18011e-10
3.95175e-10
-7.99125e-13
6.04606e-10
-2.66749e-10
8.60098e-10
-5.59571e-10
1.15184e-09
-8.61281e-10
1.46807e-09
-1.15594e-09
1.79718e-09
-1.43161e-09
2.12883e-09
-1.68054e-09
2.45428e-09
-1.89854e-09
2.76646e-09
-2.08419e-09
3.0598e-09
-2.23811e-09
3.33008e-09
-2.36234e-09
3.57421e-09
-2.45982e-09
3.7901e-09
-2.53405e-09
3.97652e-09
-2.58878e-09
4.13295e-09
-2.62759e-09
4.2595e-09