/*--------------------------------*- C++ -*----------------------------------*\
  =========                 |
  \\      /  F ield         | OpenFOAM: The Open Source CFD Toolbox
   \\    /   O peration     | Website:  https://openfoam.org
    \\  /    A nd           | Version:  6
     \\/     M anipulation  |
\*---------------------------------------------------------------------------*/
FoamFile
{
    version     2.0;
    format      ascii;
    class       volScalarField;
    location    "100";
    object      phii;
}
// * * * * * * * * * * * * * * * * * * * * * * * * * * * * * * * * * * * * * //

dimensions      [1 2 -3 0 0 -1 0];

internalField   nonuniform List<scalar> 
8800
(
24.3508
24.3571
24.3681
24.3835
24.4031
24.4269
24.455
24.4873
24.5238
24.5643
24.6089
24.6574
24.7096
24.7656
24.825
24.8878
24.9538
25.0228
25.0946
25.169
25.2457
25.3245
25.4051
25.4872
25.5706
25.6549
25.7398
25.8249
25.9099
25.9944
26.078
26.1605
26.2414
26.3204
26.3972
26.4715
26.543
26.6113
26.676
26.7368
71.5761
71.5933
71.6254
71.671
71.7297
71.8015
71.8862
71.9837
72.0938
72.2162
72.3508
72.4972
72.655
72.8239
73.0035
73.1932
73.3926
73.6011
73.8181
74.0429
74.2748
74.5129
74.7566
75.005
75.2571
75.5121
75.769
76.0267
76.2842
76.5405
76.7943
77.0446
77.2904
77.5306
77.7643
77.9904
78.2078
78.4155
78.6124
78.7974
117.393
117.421
117.474
117.55
117.648
117.768
117.91
118.073
118.257
118.463
118.688
118.934
119.198
119.481
119.783
120.101
120.435
120.785
121.149
121.526
121.915
122.315
122.724
123.142
123.565
123.994
124.425
124.859
125.292
125.723
126.151
126.573
126.987
127.392
127.787
128.168
128.535
128.886
129.219
129.531
161.871
161.91
161.983
162.089
162.227
162.395
162.595
162.825
163.084
163.373
163.691
164.037
164.41
164.809
165.233
165.682
166.153
166.646
167.16
167.692
168.241
168.805
169.383
169.971
170.57
171.175
171.785
172.398
173.011
173.621
174.227
174.825
175.412
175.987
176.547
177.088
177.609
178.108
178.58
179.024
205.076
205.126
205.22
205.356
205.534
205.752
206.01
206.307
206.643
207.017
207.428
207.875
208.358
208.874
209.424
210.005
210.616
211.255
211.92
212.61
213.322
214.054
214.804
215.568
216.345
217.131
217.924
218.721
219.518
220.313
221.101
221.88
222.646
223.395
224.126
224.833
225.513
226.164
226.781
227.361
247.073
247.134
247.249
247.417
247.635
247.903
248.22
248.585
248.998
249.458
249.964
250.515
251.109
251.745
252.422
253.138
253.891
254.679
255.5
256.351
257.229
258.133
259.058
260.003
260.963
261.935
262.916
263.902
264.89
265.874
266.851
267.817
268.767
269.698
270.604
271.483
272.329
273.138
273.905
274.626
287.925
287.997
288.134
288.333
288.592
288.911
289.288
289.722
290.214
290.762
291.364
292.02
292.728
293.486
294.293
295.147
296.045
296.985
297.964
298.98
300.03
301.11
302.216
303.346
304.494
305.659
306.834
308.015
309.199
310.379
311.552
312.712
313.854
314.972
316.063
317.12
318.138
319.112
320.036
320.905
327.691
327.775
327.934
328.165
328.466
328.836
329.274
329.78
330.351
330.988
331.689
332.452
333.275
334.158
335.098
336.093
337.14
338.236
339.378
340.564
341.79
343.051
344.344
345.664
347.008
348.371
349.747
351.131
352.518
353.903
355.279
356.64
357.982
359.296
360.579
361.822
363.02
364.167
365.256
366.28
366.43
366.526
366.707
366.971
367.315
367.737
368.237
368.814
369.467
370.195
370.996
371.869
372.811
373.822
374.898
376.037
377.236
378.493
379.804
381.164
382.571
384.02
385.505
387.024
388.57
390.139
391.723
393.319
394.918
396.515
398.103
399.676
401.226
402.746
404.229
405.668
407.055
408.383
409.645
410.832
404.195
404.303
404.508
404.805
405.192
405.668
406.231
406.882
407.618
408.438
409.342
410.327
411.391
412.532
413.748
415.036
416.393
417.815
419.299
420.84
422.435
424.077
425.764
427.488
429.245
431.027
432.83
434.645
436.466
438.286
440.096
441.89
443.658
445.394
447.088
448.733
450.32
451.839
453.283
454.642
441.038
441.158
441.387
441.718
442.149
442.679
443.308
444.033
444.854
445.77
446.778
447.878
449.067
450.343
451.703
453.144
454.663
456.256
457.92
459.648
461.438
463.283
465.177
467.116
469.092
471.099
473.129
475.175
477.229
479.282
481.326
483.351
485.35
487.313
489.23
491.092
492.889
494.611
496.248
497.79
477.007
477.14
477.393
477.758
478.235
478.821
479.515
480.317
481.225
482.238
483.355
484.573
485.89
487.305
488.813
490.413
492.1
493.87
495.719
497.643
499.635
501.69
503.803
505.966
508.172
510.413
512.683
514.971
517.269
519.567
521.857
524.127
526.369
528.571
530.724
532.816
534.837
536.774
538.617
540.354
512.148
512.294
512.57
512.971
513.494
514.137
514.899
515.779
516.777
517.89
519.117
520.457
521.907
523.464
525.126
526.89
528.751
530.705
532.747
534.874
537.077
539.353
541.693
544.09
546.538
549.026
551.547
554.09
556.646
559.203
561.753
564.282
566.781
569.238
571.64
573.977
576.235
578.402
580.465
582.41
546.502
546.661
546.962
547.399
547.969
548.67
549.501
550.462
551.551
552.768
554.109
555.574
557.16
558.865
560.686
562.619
564.661
566.806
569.05
571.388
573.812
576.318
578.897
581.541
584.242
586.991
589.776
592.589
595.417
598.249
601.073
603.878
606.649
609.376
612.045
614.642
617.154
619.567
621.864
624.033
580.109
580.281
580.607
581.081
581.699
582.459
583.362
584.405
585.588
586.91
588.369
589.963
591.691
593.548
595.534
597.643
599.872
602.216
604.67
607.229
609.885
612.632
615.461
618.365
621.333
624.356
627.422
630.519
633.636
636.759
639.876
642.972
646.035
649.049
652.002
654.878
657.662
660.338
662.889
665.297
613.005
613.19
613.541
614.052
614.719
615.541
616.516
617.644
618.924
620.355
621.934
623.662
625.535
627.551
629.706
631.998
634.423
636.974
639.648
642.437
645.335
648.335
651.429
654.606
657.856
661.169
664.531
667.931
671.354
674.787
678.215
681.622
684.995
688.317
691.574
694.749
697.826
700.785
703.608
706.277
645.222
645.42
645.798
646.347
647.064
647.947
648.997
650.212
651.591
653.134
654.838
656.703
658.727
660.906
663.238
665.72
668.347
671.115
674.017
677.048
680.2
683.467
686.837
690.303
693.851
697.47
701.148
704.869
708.618
712.38
716.14
719.88
723.585
727.237
730.821
734.318
737.709
740.975
744.094
747.044
676.792
677.003
677.406
677.994
678.762
679.709
680.835
682.139
683.62
685.278
687.111
689.118
691.296
693.645
696.16
698.839
701.677
704.67
707.811
711.095
714.514
718.059
721.722
725.492
729.355
733.3
737.311
741.373
745.47
749.585
753.699
757.796
761.857
765.864
769.8
773.644
777.377
780.975
784.414
787.672
707.74
707.965
708.394
709.021
709.841
710.853
712.057
713.453
715.038
716.814
718.779
720.932
723.271
725.795
728.499
731.383
734.44
737.667
741.058
744.606
748.304
752.144
756.114
760.204
764.401
768.69
773.057
777.483
781.95
786.441
790.936
795.416
799.861
804.251
808.567
812.788
816.891
820.85
824.64
828.233
738.093
738.33
738.786
739.453
740.326
741.404
742.688
744.176
745.869
747.767
749.867
752.17
754.675
757.379
760.28
763.375
766.66
770.131
773.782
777.607
781.597
785.745
790.039
794.468
799.017
803.672
808.416
813.229
818.094
822.988
827.891
832.783
837.642
842.446
847.175
851.806
856.312
860.667
864.84
868.8
767.871
768.122
768.604
769.311
770.238
771.384
772.749
774.333
776.135
778.156
780.396
782.854
785.529
788.419
791.522
794.837
798.358
802.082
806.004
810.118
814.415
818.886
823.521
828.306
833.228
838.271
843.415
848.642
853.93
859.257
864.6
869.936
875.243
880.498
885.676
890.753
895.702
900.49
905.084
909.449
797.095
797.358
797.868
798.615
799.596
800.811
802.258
803.939
805.854
808.002
810.385
813.001
815.85
818.932
822.244
825.785
829.551
833.538
837.742
842.157
846.773
851.583
856.576
861.737
867.053
872.506
878.077
883.745
889.486
895.277
901.094
906.911
912.704
918.449
924.118
929.686
935.12
940.385
945.445
950.257
825.78
826.057
826.594
827.382
828.418
829.702
831.234
833.013
835.042
837.32
839.848
842.626
845.655
848.933
852.46
856.234
860.253
864.513
869.009
873.737
878.687
883.851
889.219
894.776
900.507
906.395
912.418
918.556
924.783
931.073
937.401
943.739
950.061
956.341
962.549
968.656
974.626
980.42
985.995
991.303
853.942
854.232
854.796
855.625
856.717
858.071
859.688
861.568
863.712
866.122
868.798
871.742
874.953
878.433
882.181
886.195
890.474
895.016
899.815
904.867
910.165
915.699
921.459
927.431
933.6
939.947
946.451
953.089
959.835
966.662
973.542
980.446
987.345
994.211
1001.01
1007.72
1014.28
1020.66
1026.81
1032.67
881.593
881.897
882.487
883.358
884.506
885.931
887.633
889.614
891.876
894.419
897.246
900.358
903.756
907.442
911.415
915.676
920.223
925.054
930.166
935.554
941.212
947.131
953.3
959.707
966.336
973.168
980.182
987.353
994.654
1002.06
1009.53
1017.05
1024.58
1032.09
1039.55
1046.92
1054.14
1061.18
1067.97
1074.45
908.744
909.06
909.678
910.59
911.794
913.29
915.079
917.162
919.541
922.22
925.199
928.482
932.07
935.965
940.169
944.681
949.502
954.631
960.065
965.8
971.83
978.148
984.744
991.605
998.715
1006.06
1013.61
1021.35
1029.24
1037.27
1045.39
1053.58
1061.8
1070.02
1078.2
1086.31
1094.28
1102.05
1109.56
1116.73
935.402
935.731
936.376
937.329
938.59
940.157
942.032
944.217
946.716
949.531
952.664
956.119
959.899
964.007
968.445
973.214
978.315
983.748
989.511
995.603
1002.02
1008.75
1015.78
1023.12
1030.73
1038.61
1046.73
1055.07
1063.6
1072.29
1081.11
1090.02
1099
1108.01
1117.01
1125.94
1134.74
1143.34
1151.67
1159.61
961.574
961.916
962.588
963.582
964.898
966.536
968.498
970.786
973.404
976.355
979.643
983.272
987.246
991.569
996.243
1001.27
1006.66
1012.4
1018.5
1024.96
1031.76
1038.92
1046.41
1054.23
1062.37
1070.81
1079.53
1088.5
1097.71
1107.11
1116.68
1126.4
1136.21
1146.09
1155.99
1165.85
1175.6
1185.14
1194.39
1203.22
987.265
987.62
988.318
989.353
990.725
992.433
994.481
996.871
999.608
1002.7
1006.14
1009.94
1014.11
1018.65
1023.56
1028.86
1034.53
1040.59
1047.03
1053.85
1061.06
1068.65
1076.61
1084.94
1093.62
1102.65
1111.99
1121.63
1131.55
1141.72
1152.11
1162.69
1173.42
1184.27
1195.18
1206.09
1216.91
1227.53
1237.83
1247.66
1012.48
1012.85
1013.57
1014.65
1016.07
1017.85
1019.98
1022.47
1025.33
1028.55
1032.15
1036.13
1040.49
1045.25
1050.4
1055.96
1061.92
1068.29
1075.08
1082.28
1089.9
1097.93
1106.37
1115.21
1124.46
1134.08
1144.08
1154.43
1165.1
1176.09
1187.35
1198.87
1210.62
1222.54
1234.59
1246.7
1258.74
1270.59
1282.1
1293.09
1037.21
1037.59
1038.34
1039.46
1040.94
1042.79
1045
1047.6
1050.57
1053.93
1057.68
1061.83
1066.38
1071.36
1076.75
1082.57
1088.82
1095.51
1102.64
1110.22
1118.25
1126.73
1135.66
1145.03
1154.84
1165.09
1175.77
1186.85
1198.32
1210.17
1222.38
1234.92
1247.78
1260.9
1274.24
1287.69
1301.15
1314.42
1327.33
1339.66
1061.48
1061.87
1062.64
1063.8
1065.33
1067.24
1069.54
1072.23
1075.32
1078.81
1082.71
1087.04
1091.79
1096.97
1102.6
1108.68
1115.22
1122.23
1129.71
1137.66
1146.1
1155.03
1164.44
1174.35
1184.75
1195.64
1207
1218.85
1231.15
1243.92
1257.13
1270.79
1284.86
1299.31
1314.1
1329.1
1344.18
1359.12
1373.67
1387.56
1085.26
1085.67
1086.47
1087.66
1089.24
1091.22
1093.6
1096.39
1099.59
1103.21
1107.26
1111.75
1116.69
1122.09
1127.95
1134.29
1141.11
1148.43
1156.25
1164.58
1173.42
1182.8
1192.7
1203.15
1214.13
1225.66
1237.74
1250.36
1263.54
1277.26
1291.54
1306.38
1321.78
1337.72
1354.13
1370.92
1387.88
1404.77
1421.27
1437
1108.57
1108.99
1109.81
1111.04
1112.67
1114.72
1117.17
1120.05
1123.36
1127.11
1131.31
1135.96
1141.09
1146.69
1152.78
1159.37
1166.47
1174.1
1182.25
1190.95
1200.2
1210.01
1220.4
1231.37
1242.94
1255.12
1267.91
1281.33
1295.39
1310.11
1325.51
1341.62
1358.46
1376.02
1394.27
1413.09
1432.26
1451.47
1470.31
1488.27
1131.4
1131.83
1132.67
1133.94
1135.62
1137.72
1140.26
1143.23
1146.64
1150.52
1154.85
1159.67
1164.97
1170.77
1177.09
1183.92
1191.29
1199.21
1207.69
1216.74
1226.38
1236.63
1247.49
1258.99
1271.13
1283.95
1297.45
1311.67
1326.62
1342.36
1358.92
1376.36
1394.74
1414.09
1434.38
1455.51
1477.27
1499.28
1520.99
1541.71
1153.75
1154.19
1155.06
1156.35
1158.08
1160.24
1162.85
1165.91
1169.42
1173.42
1177.89
1182.86
1188.33
1194.33
1200.85
1207.92
1215.55
1223.75
1232.55
1241.94
1251.96
1262.62
1273.94
1285.94
1298.65
1312.09
1326.29
1341.29
1357.14
1373.89
1391.63
1410.45
1430.45
1451.7
1474.24
1498.01
1522.8
1548.2
1573.52
1597.76
1175.62
1176.07
1176.95
1178.28
1180.05
1182.27
1184.94
1188.08
1191.7
1195.81
1200.41
1205.52
1211.16
1217.34
1224.07
1231.36
1239.24
1247.71
1256.8
1266.52
1276.9
1287.95
1299.7
1312.19
1325.43
1339.47
1354.34
1370.1
1386.81
1404.57
1423.48
1443.68
1465.34
1488.59
1513.55
1540.25
1568.56
1598.11
1628.06
1657.03
1197
1197.45
1198.36
1199.72
1201.53
1203.8
1206.54
1209.76
1213.47
1217.68
1222.4
1227.66
1233.45
1239.8
1246.72
1254.22
1262.33
1271.05
1280.42
1290.45
1301.16
1312.58
1324.74
1337.68
1351.42
1366.02
1381.52
1398
1415.53
1434.25
1454.28
1475.84
1499.12
1524.39
1551.85
1581.7
1614.01
1648.57
1684.63
1720.34
1217.89
1218.35
1219.27
1220.66
1222.51
1224.83
1227.63
1230.92
1234.72
1239.03
1243.87
1249.25
1255.19
1261.69
1268.79
1276.49
1284.81
1293.77
1303.39
1313.7
1324.72
1336.49
1349.02
1362.37
1376.57
1391.68
1407.76
1424.89
1443.18
1462.77
1483.85
1506.66
1531.48
1558.66
1588.57
1621.61
1658.18
1698.58
1742.64
1788.65
1238.28
1238.75
1239.69
1241.1
1242.98
1245.35
1248.21
1251.57
1255.45
1259.85
1264.79
1270.29
1276.36
1283.02
1290.27
1298.15
1306.66
1315.84
1325.7
1336.26
1347.56
1359.63
1372.5
1386.22
1400.83
1416.39
1432.98
1450.69
1469.65
1490.01
1512
1535.9
1562.07
1590.93
1623.01
1658.94
1699.58
1746.06
1799.86
1862.06
26.7933
26.8452
26.8922
26.9339
26.97
27.0003
27.0247
27.0431
27.0554
27.0615
27.0615
27.0554
27.0431
27.0247
27.0003
26.97
26.9339
26.8922
26.8452
26.7933
78.9694
79.1274
79.2702
79.3971
79.5071
79.5997
79.6742
79.7304
79.7679
79.7867
79.7867
79.7679
79.7304
79.6742
79.5997
79.5071
79.3971
79.2702
79.1274
78.9694
129.822
130.088
130.33
130.544
130.73
130.887
131.013
131.108
131.172
131.204
131.204
131.172
131.108
131.013
130.887
130.73
130.544
130.33
130.088
129.822
179.437
179.816
180.159
180.464
180.728
180.951
181.131
181.266
181.357
181.403
181.403
181.357
181.266
181.131
180.951
180.728
180.464
180.159
179.816
179.437
227.9
228.396
228.844
229.243
229.589
229.881
230.116
230.294
230.413
230.472
230.472
230.413
230.294
230.116
229.881
229.589
229.243
228.844
228.396
227.9
275.298
275.914
276.473
276.969
277.401
277.764
278.057
278.279
278.427
278.501
278.501
278.427
278.279
278.057
277.764
277.401
276.969
276.473
275.914
275.298
321.714
322.457
323.131
323.729
324.25
324.688
325.042
325.31
325.489
325.579
325.579
325.489
325.31
325.042
324.688
324.25
323.729
323.131
322.457
321.714
367.233
368.109
368.903
369.609
370.223
370.741
371.159
371.474
371.686
371.792
371.792
371.686
371.474
371.159
370.741
370.223
369.609
368.903
368.109
367.233
411.937
412.954
413.875
414.695
415.407
416.008
416.493
416.86
417.106
417.229
417.229
417.106
416.86
416.493
416.008
415.407
414.695
413.875
412.954
411.937
455.909
457.074
458.129
459.069
459.886
460.576
461.132
461.553
461.835
461.976
461.976
461.835
461.553
461.132
460.576
459.886
459.069
458.129
457.074
455.909
499.228
500.55
501.749
502.817
503.745
504.529
505.162
505.64
505.96
506.121
506.121
505.96
505.64
505.162
504.529
503.745
502.817
501.749
500.55
499.228
541.973
543.464
544.816
546.021
547.068
547.952
548.666
549.206
549.568
549.749
549.749
549.568
549.206
548.666
547.952
547.068
546.021
544.816
543.464
541.973
584.224
585.895
587.411
588.762
589.938
590.93
591.731
592.337
592.744
592.947
592.947
592.744
592.337
591.731
590.93
589.938
588.762
587.411
585.895
584.224
626.056
627.922
629.615
631.123
632.437
633.545
634.441
635.119
635.573
635.801
635.801
635.573
635.119
634.441
633.545
632.437
631.123
629.615
627.922
626.056
667.547
669.622
671.506
673.186
674.648
675.883
676.881
677.636
678.142
678.396
678.396
678.142
677.636
676.881
675.883
674.648
673.186
671.506
669.622
667.547
708.771
711.073
713.165
715.03
716.655
718.027
719.136
719.975
720.537
720.819
720.819
720.537
719.975
719.136
718.027
716.655
715.03
713.165
711.073
708.771
749.804
752.354
754.671
756.739
758.54
760.061
761.291
762.222
762.845
763.158
763.158
762.845
762.222
761.291
760.061
758.54
756.739
754.671
752.354
749.804
790.722
793.541
796.105
798.394
800.388
802.072
803.435
804.465
805.156
805.503
805.503
805.156
804.465
803.435
802.072
800.388
798.394
796.105
793.541
790.722
831.6
834.714
837.549
840.079
842.285
844.148
845.655
846.795
847.56
847.944
847.944
847.56
846.795
845.655
844.148
842.285
840.079
837.549
834.714
831.6
872.516
875.955
879.086
881.882
884.319
886.379
888.045
889.305
890.15
890.575
890.575
890.15
889.305
888.045
886.379
884.319
881.882
879.086
875.955
872.516
913.548
917.344
920.802
923.89
926.583
928.859
930.699
932.091
933.025
933.494
933.494
933.025
932.091
930.699
928.859
926.583
923.89
920.802
917.344
913.548
954.78
958.97
962.788
966.199
969.173
971.685
973.718
975.255
976.285
976.802
976.802
976.285
975.255
973.718
971.685
969.173
966.199
962.788
958.97
954.78
996.295
1000.92
1005.14
1008.91
1012.19
1014.96
1017.21
1018.9
1020.04
1020.61
1020.61
1020.04
1018.9
1017.21
1014.96
1012.19
1008.91
1005.14
1000.92
996.295
1038.18
1043.3
1047.95
1052.11
1055.74
1058.8
1061.27
1063.14
1064.4
1065.02
1065.02
1064.4
1063.14
1061.27
1058.8
1055.74
1052.11
1047.95
1043.3
1038.18
1080.54
1086.2
1091.34
1095.94
1099.94
1103.32
1106.04
1108.1
1109.48
1110.17
1110.17
1109.48
1108.1
1106.04
1103.32
1099.94
1095.94
1091.34
1086.2
1080.54
1123.48
1129.73
1135.43
1140.5
1144.92
1148.64
1151.64
1153.9
1155.42
1156.17
1156.17
1155.42
1153.9
1151.64
1148.64
1144.92
1140.5
1135.43
1129.73
1123.48
1167.1
1174.03
1180.33
1185.94
1190.81
1194.9
1198.2
1200.68
1202.34
1203.17
1203.17
1202.34
1200.68
1198.2
1194.9
1190.81
1185.94
1180.33
1174.03
1167.1
1211.53
1219.22
1226.19
1232.39
1237.75
1242.25
1245.87
1248.58
1250.39
1251.3
1251.3
1250.39
1248.58
1245.87
1242.25
1237.75
1232.39
1226.19
1219.22
1211.53
1256.91
1265.45
1273.18
1280.02
1285.92
1290.85
1294.8
1297.76
1299.73
1300.71
1300.71
1299.73
1297.76
1294.8
1290.85
1285.92
1280.02
1273.18
1265.45
1256.91
1303.41
1312.91
1321.47
1329.02
1335.49
1340.88
1345.17
1348.37
1350.5
1351.56
1351.56
1350.5
1348.37
1345.17
1340.88
1335.49
1329.02
1321.47
1312.91
1303.41
1351.21
1361.79
1371.28
1379.59
1386.67
1392.52
1397.15
1400.59
1402.86
1403.99
1403.99
1402.86
1400.59
1397.15
1392.52
1386.67
1379.59
1371.28
1361.79
1351.21
1400.52
1412.34
1422.85
1431.97
1439.67
1445.97
1450.92
1454.57
1456.97
1458.16
1458.16
1456.97
1454.57
1450.92
1445.97
1439.67
1431.97
1422.85
1412.34
1400.52
1451.63
1464.85
1476.48
1486.44
1494.74
1501.45
1506.67
1510.49
1512.98
1514.22
1514.22
1512.98
1510.49
1506.67
1501.45
1494.74
1486.44
1476.48
1464.85
1451.63
1504.87
1519.7
1532.53
1543.32
1552.16
1559.19
1564.58
1568.49
1571.02
1572.27
1572.27
1571.02
1568.49
1564.58
1559.19
1552.16
1543.32
1532.53
1519.7
1504.87
1560.7
1577.36
1591.44
1602.99
1612.22
1619.41
1624.83
1628.71
1631.2
1632.42
1632.42
1631.2
1628.71
1624.83
1619.41
1612.22
1602.99
1591.44
1577.36
1560.7
1619.75
1638.52
1653.81
1665.89
1675.23
1682.32
1687.55
1691.23
1693.57
1694.71
1694.71
1693.57
1691.23
1687.55
1682.32
1675.23
1665.89
1653.81
1638.52
1619.75
1683.01
1704.14
1720.38
1732.53
1741.51
1748.09
1752.82
1756.09
1758.15
1759.14
1759.14
1758.15
1756.09
1752.82
1748.09
1741.51
1732.53
1720.38
1704.14
1683.01
1752.18
1775.75
1792.13
1803.41
1811.26
1816.77
1820.63
1823.24
1824.86
1825.64
1825.64
1824.86
1823.24
1820.63
1816.77
1811.26
1803.41
1792.13
1775.75
1752.18
1830.78
1855.72
1870.12
1878.87
1884.5
1888.26
1890.82
1892.52
1893.57
1894.07
1894.07
1893.57
1892.52
1890.82
1888.26
1884.5
1878.87
1870.12
1855.72
1830.78
1927.8
1947.44
1954.99
1958.68
1960.81
1962.17
1963.08
1963.67
1964.03
1964.2
1964.2
1964.03
1963.67
1963.08
1962.17
1960.81
1958.68
1954.99
1947.44
1927.8
26.7368
26.676
26.6113
26.543
26.4715
26.3972
26.3204
26.2414
26.1605
26.078
25.9944
25.9099
25.8249
25.7398
25.6549
25.5706
25.4872
25.4051
25.3245
25.2457
25.169
25.0946
25.0228
24.9538
24.8878
24.825
24.7656
24.7096
24.6574
24.6089
24.5643
24.5238
24.4873
24.455
24.4269
24.4031
24.3835
24.3681
24.3571
24.3508
78.7974
78.6124
78.4155
78.2078
77.9904
77.7643
77.5306
77.2904
77.0446
76.7943
76.5405
76.2842
76.0267
75.769
75.5121
75.2571
75.005
74.7566
74.5129
74.2748
74.0429
73.8181
73.6011
73.3926
73.1932
73.0035
72.8239
72.655
72.4972
72.3508
72.2162
72.0938
71.9837
71.8862
71.8015
71.7297
71.671
71.6254
71.5933
71.5761
129.531
129.219
128.886
128.535
128.168
127.787
127.392
126.987
126.573
126.151
125.723
125.292
124.859
124.425
123.994
123.565
123.142
122.724
122.315
121.915
121.526
121.149
120.785
120.435
120.101
119.783
119.481
119.198
118.934
118.688
118.463
118.257
118.073
117.91
117.768
117.648
117.55
117.474
117.421
117.393
179.024
178.58
178.108
177.609
177.088
176.547
175.987
175.412
174.825
174.227
173.621
173.011
172.398
171.785
171.175
170.57
169.971
169.383
168.805
168.241
167.692
167.16
166.646
166.153
165.682
165.233
164.809
164.41
164.037
163.691
163.373
163.084
162.825
162.595
162.395
162.227
162.089
161.983
161.91
161.871
227.361
226.781
226.164
225.513
224.833
224.126
223.395
222.646
221.88
221.101
220.313
219.518
218.721
217.924
217.131
216.345
215.568
214.804
214.054
213.322
212.61
211.92
211.255
210.616
210.005
209.424
208.874
208.358
207.875
207.428
207.017
206.643
206.307
206.01
205.752
205.534
205.356
205.22
205.126
205.076
274.626
273.905
273.138
272.329
271.483
270.604
269.698
268.767
267.817
266.851
265.874
264.89
263.902
262.916
261.935
260.963
260.003
259.058
258.133
257.229
256.351
255.5
254.679
253.891
253.138
252.422
251.745
251.109
250.515
249.964
249.458
248.998
248.585
248.22
247.903
247.635
247.417
247.249
247.134
247.073
320.905
320.036
319.112
318.138
317.12
316.063
314.972
313.854
312.712
311.552
310.379
309.199
308.015
306.834
305.659
304.494
303.346
302.216
301.11
300.03
298.98
297.964
296.985
296.045
295.147
294.293
293.486
292.728
292.02
291.364
290.762
290.214
289.722
289.288
288.911
288.592
288.333
288.134
287.997
287.925
366.28
365.256
364.167
363.02
361.822
360.579
359.296
357.982
356.64
355.279
353.903
352.518
351.131
349.747
348.371
347.008
345.664
344.344
343.051
341.79
340.564
339.378
338.236
337.14
336.093
335.098
334.158
333.275
332.452
331.689
330.988
330.351
329.78
329.274
328.836
328.466
328.165
327.934
327.775
327.691
410.832
409.645
408.383
407.055
405.668
404.229
402.746
401.226
399.676
398.103
396.515
394.918
393.319
391.723
390.139
388.57
387.024
385.505
384.02
382.571
381.164
379.804
378.493
377.236
376.037
374.898
373.822
372.811
371.869
370.996
370.195
369.467
368.814
368.237
367.737
367.315
366.971
366.707
366.526
366.43
454.642
453.283
451.839
450.32
448.733
447.088
445.394
443.658
441.89
440.096
438.286
436.466
434.645
432.83
431.027
429.245
427.488
425.764
424.077
422.435
420.84
419.299
417.815
416.393
415.036
413.748
412.532
411.391
410.327
409.342
408.438
407.618
406.882
406.231
405.668
405.192
404.805
404.508
404.303
404.195
497.79
496.248
494.611
492.889
491.092
489.23
487.313
485.35
483.351
481.326
479.282
477.229
475.175
473.129
471.099
469.092
467.116
465.177
463.283
461.438
459.648
457.92
456.256
454.663
453.144
451.703
450.343
449.067
447.878
446.778
445.77
444.854
444.033
443.308
442.679
442.149
441.718
441.387
441.158
441.038
540.354
538.617
536.774
534.837
532.816
530.724
528.571
526.369
524.127
521.857
519.567
517.269
514.971
512.683
510.413
508.172
505.966
503.803
501.69
499.635
497.643
495.719
493.87
492.1
490.413
488.813
487.305
485.89
484.573
483.355
482.238
481.225
480.317
479.515
478.821
478.235
477.758
477.393
477.14
477.007
582.41
580.465
578.402
576.235
573.977
571.64
569.238
566.781
564.282
561.753
559.203
556.646
554.09
551.547
549.026
546.538
544.09
541.693
539.353
537.077
534.874
532.747
530.705
528.751
526.89
525.126
523.464
521.907
520.457
519.117
517.89
516.777
515.779
514.899
514.137
513.494
512.971
512.57
512.294
512.148
624.033
621.864
619.567
617.154
614.642
612.045
609.376
606.649
603.878
601.073
598.249
595.417
592.589
589.776
586.991
584.242
581.541
578.897
576.318
573.812
571.388
569.05
566.806
564.661
562.619
560.686
558.865
557.16
555.574
554.109
552.768
551.551
550.462
549.501
548.67
547.969
547.399
546.962
546.661
546.502
665.297
662.889
660.338
657.662
654.878
652.002
649.049
646.035
642.972
639.876
636.759
633.636
630.519
627.422
624.356
621.333
618.365
615.461
612.632
609.885
607.229
604.67
602.216
599.872
597.643
595.534
593.548
591.691
589.963
588.369
586.91
585.588
584.405
583.362
582.459
581.699
581.081
580.607
580.281
580.109
706.277
703.608
700.785
697.826
694.749
691.574
688.317
684.995
681.622
678.215
674.787
671.354
667.931
664.531
661.169
657.856
654.606
651.429
648.335
645.335
642.437
639.648
636.974
634.423
631.998
629.706
627.551
625.535
623.662
621.934
620.355
618.924
617.644
616.516
615.541
614.719
614.052
613.541
613.19
613.005
747.044
744.094
740.975
737.709
734.318
730.821
727.237
723.585
719.88
716.14
712.38
708.618
704.869
701.148
697.47
693.851
690.303
686.837
683.467
680.2
677.048
674.017
671.115
668.347
665.72
663.238
660.906
658.727
656.703
654.838
653.134
651.591
650.212
648.997
647.947
647.064
646.347
645.798
645.42
645.222
787.672
784.414
780.975
777.377
773.644
769.8
765.864
761.857
757.796
753.699
749.585
745.47
741.373
737.311
733.3
729.355
725.492
721.722
718.059
714.514
711.095
707.811
704.67
701.677
698.839
696.16
693.645
691.296
689.118
687.111
685.278
683.62
682.139
680.835
679.709
678.762
677.994
677.406
677.003
676.792
828.233
824.64
820.85
816.891
812.788
808.567
804.251
799.861
795.416
790.936
786.441
781.95
777.483
773.057
768.69
764.401
760.204
756.114
752.144
748.304
744.606
741.058
737.667
734.44
731.383
728.499
725.795
723.271
720.932
718.779
716.814
715.038
713.453
712.057
710.853
709.841
709.021
708.394
707.965
707.74
868.8
864.84
860.667
856.312
851.806
847.175
842.446
837.642
832.783
827.891
822.988
818.094
813.229
808.416
803.672
799.017
794.468
790.039
785.745
781.597
777.607
773.782
770.131
766.66
763.375
760.28
757.379
754.675
752.17
749.867
747.767
745.869
744.176
742.688
741.404
740.326
739.453
738.786
738.33
738.093
909.449
905.084
900.49
895.702
890.753
885.676
880.498
875.243
869.936
864.6
859.257
853.93
848.642
843.415
838.271
833.228
828.306
823.521
818.886
814.415
810.118
806.004
802.082
798.358
794.837
791.522
788.419
785.529
782.854
780.396
778.156
776.135
774.333
772.749
771.384
770.238
769.311
768.604
768.122
767.871
950.257
945.445
940.385
935.12
929.686
924.118
918.449
912.704
906.911
901.094
895.277
889.486
883.745
878.077
872.506
867.053
861.737
856.576
851.583
846.773
842.157
837.742
833.538
829.551
825.785
822.244
818.932
815.85
813.001
810.385
808.002
805.854
803.939
802.258
800.811
799.596
798.615
797.868
797.358
797.095
991.303
985.995
980.42
974.626
968.656
962.549
956.341
950.061
943.739
937.401
931.073
924.783
918.556
912.418
906.395
900.507
894.776
889.219
883.851
878.687
873.737
869.009
864.513
860.253
856.234
852.46
848.933
845.655
842.626
839.848
837.32
835.042
833.013
831.234
829.702
828.418
827.382
826.594
826.057
825.78
1032.67
1026.81
1020.66
1014.28
1007.72
1001.01
994.211
987.345
980.446
973.542
966.662
959.835
953.089
946.451
939.947
933.6
927.431
921.459
915.699
910.165
904.867
899.815
895.016
890.474
886.195
882.181
878.433
874.953
871.742
868.798
866.122
863.712
861.568
859.688
858.071
856.717
855.625
854.796
854.232
853.942
1074.45
1067.97
1061.18
1054.14
1046.92
1039.55
1032.09
1024.58
1017.05
1009.53
1002.06
994.654
987.353
980.182
973.168
966.336
959.707
953.3
947.131
941.212
935.554
930.166
925.054
920.223
915.676
911.415
907.442
903.756
900.358
897.246
894.419
891.876
889.614
887.633
885.931
884.506
883.358
882.487
881.897
881.593
1116.73
1109.56
1102.05
1094.28
1086.31
1078.2
1070.02
1061.8
1053.58
1045.39
1037.27
1029.24
1021.35
1013.61
1006.06
998.715
991.605
984.744
978.148
971.83
965.8
960.065
954.631
949.502
944.681
940.169
935.965
932.07
928.482
925.199
922.22
919.541
917.162
915.079
913.29
911.794
910.59
909.678
909.06
908.744
1159.61
1151.67
1143.34
1134.74
1125.94
1117.01
1108.01
1099
1090.02
1081.11
1072.29
1063.6
1055.07
1046.73
1038.61
1030.73
1023.12
1015.78
1008.75
1002.02
995.603
989.511
983.748
978.315
973.214
968.445
964.007
959.899
956.119
952.664
949.531
946.716
944.217
942.032
940.157
938.59
937.329
936.376
935.731
935.402
1203.22
1194.39
1185.14
1175.6
1165.85
1155.99
1146.09
1136.21
1126.4
1116.68
1107.11
1097.71
1088.5
1079.53
1070.81
1062.37
1054.23
1046.41
1038.92
1031.76
1024.96
1018.5
1012.4
1006.66
1001.27
996.243
991.569
987.246
983.272
979.643
976.355
973.404
970.786
968.498
966.536
964.898
963.582
962.588
961.916
961.574
1247.66
1237.83
1227.53
1216.91
1206.09
1195.18
1184.27
1173.42
1162.69
1152.11
1141.72
1131.55
1121.63
1111.99
1102.65
1093.62
1084.94
1076.61
1068.65
1061.06
1053.85
1047.03
1040.59
1034.53
1028.86
1023.56
1018.65
1014.11
1009.94
1006.14
1002.7
999.608
996.871
994.481
992.433
990.725
989.353
988.318
987.62
987.265
1293.09
1282.1
1270.59
1258.74
1246.7
1234.59
1222.54
1210.62
1198.87
1187.35
1176.09
1165.1
1154.43
1144.08
1134.08
1124.46
1115.21
1106.37
1097.93
1089.9
1082.28
1075.08
1068.29
1061.92
1055.96
1050.4
1045.25
1040.49
1036.13
1032.15
1028.55
1025.33
1022.47
1019.98
1017.85
1016.07
1014.65
1013.57
1012.85
1012.48
1339.66
1327.33
1314.42
1301.15
1287.69
1274.24
1260.9
1247.78
1234.92
1222.38
1210.17
1198.32
1186.85
1175.77
1165.09
1154.84
1145.03
1135.66
1126.73
1118.25
1110.22
1102.64
1095.51
1088.82
1082.57
1076.75
1071.36
1066.38
1061.83
1057.68
1053.93
1050.57
1047.6
1045
1042.79
1040.94
1039.46
1038.34
1037.59
1037.21
1387.56
1373.67
1359.12
1344.18
1329.1
1314.1
1299.31
1284.86
1270.79
1257.13
1243.92
1231.15
1218.85
1207
1195.64
1184.75
1174.35
1164.44
1155.03
1146.1
1137.66
1129.71
1122.23
1115.22
1108.68
1102.6
1096.97
1091.79
1087.04
1082.71
1078.81
1075.32
1072.23
1069.54
1067.24
1065.33
1063.8
1062.64
1061.87
1061.48
1437
1421.27
1404.77
1387.88
1370.92
1354.13
1337.72
1321.78
1306.38
1291.54
1277.26
1263.54
1250.36
1237.74
1225.66
1214.13
1203.15
1192.7
1182.8
1173.42
1164.58
1156.25
1148.43
1141.11
1134.29
1127.95
1122.09
1116.69
1111.75
1107.26
1103.21
1099.59
1096.39
1093.6
1091.22
1089.24
1087.66