/*--------------------------------*- C++ -*----------------------------------*\
  =========                 |
  \\      /  F ield         | OpenFOAM: The Open Source CFD Toolbox
   \\    /   O peration     | Website:  https://openfoam.org
    \\  /    A nd           | Version:  6
     \\/     M anipulation  |
\*---------------------------------------------------------------------------*/
FoamFile
{
    version     2.0;
    format      ascii;
    class       volVectorField;
    location    "100";
    object      U;
}
// * * * * * * * * * * * * * * * * * * * * * * * * * * * * * * * * * * * * * //

dimensions      [0 1 -1 0 0 0 0];

internalField   nonuniform List<vector> 
8800
(
(-5.44392e-05 -0.00193319 0)
(-9.76899e-05 -0.00262214 0)
(-7.47355e-05 -0.0027178 0)
(-5.28855e-05 -0.00273122 0)
(-4.43195e-05 -0.00273341 0)
(-4.37276e-05 -0.00273255 0)
(-4.67956e-05 -0.00273078 0)
(-5.1617e-05 -0.00272986 0)
(-5.74292e-05 -0.00272971 0)
(-6.38215e-05 -0.00273012 0)
(-7.05398e-05 -0.00273098 0)
(-7.74127e-05 -0.00273224 0)
(-8.43076e-05 -0.00273389 0)
(-9.11046e-05 -0.00273594 0)
(-9.76837e-05 -0.00273841 0)
(-0.000103917 -0.00274132 0)
(-0.000109666 -0.0027447 0)
(-0.000114779 -0.00274859 0)
(-0.000119094 -0.00275301 0)
(-0.000122442 -0.00275799 0)
(-0.000124665 -0.00276348 0)
(-0.000125618 -0.00276923 0)
(-0.000125085 -0.00277422 0)
(-0.000122643 -0.00277915 0)
(-0.000118 -0.00278443 0)
(-0.00011093 -0.00279018 0)
(-0.000101302 -0.00279645 0)
(-8.91543e-05 -0.00280325 0)
(-7.47485e-05 -0.00281055 0)
(-5.85887e-05 -0.00281827 0)
(-4.1408e-05 -0.00282628 0)
(-2.41216e-05 -0.00283441 0)
(-7.77141e-06 -0.00284236 0)
(6.8902e-06 -0.00284906 0)
(1.93723e-05 -0.00285433 0)
(2.95141e-05 -0.00285786 0)
(3.75654e-05 -0.00285958 0)
(4.38508e-05 -0.0028609 0)
(4.83689e-05 -0.00286241 0)
(5.12259e-05 -0.00286412 0)
(2.17943e-05 0.000108233 0)
(2.48346e-05 0.000141214 0)
(-2.04586e-05 0.000166705 0)
(-5.67844e-05 0.000186214 0)
(-8.15268e-05 0.000198674 0)
(-0.000102112 0.000205443 0)
(-0.000121601 0.000208975 0)
(-0.000140907 0.00021169 0)
(-0.00016036 0.000214087 0)
(-0.000180007 0.000216297 0)
(-0.000199731 0.000218361 0)
(-0.000219346 0.000220288 0)
(-0.000238631 0.000222068 0)
(-0.000257339 0.000223676 0)
(-0.000275195 0.000225079 0)
(-0.000291898 0.000226237 0)
(-0.00030712 0.000227106 0)
(-0.000320506 0.000227638 0)
(-0.000331684 0.000227792 0)
(-0.000340274 0.000227528 0)
(-0.000345878 0.000226809 0)
(-0.000348067 0.000225498 0)
(-0.000346653 0.000222989 0)
(-0.000341108 0.000219395 0)
(-0.000330862 0.000214879 0)
(-0.000315486 0.000209573 0)
(-0.000294793 0.000203726 0)
(-0.000268905 0.000197717 0)
(-0.000238318 0.000192009 0)
(-0.000203919 0.000187107 0)
(-0.000166939 0.000183479 0)
(-0.000128826 0.000181448 0)
(-9.10348e-05 0.000181319 0)
(-5.50468e-05 0.000183386 0)
(-2.2146e-05 0.000187411 0)
(6.86584e-06 0.000192945 0)
(3.09939e-05 0.000199194 0)
(5.01994e-05 0.000205109 0)
(6.49402e-05 0.000210116 0)
(7.57506e-05 0.00021417 0)
(1.50616e-05 0.000168503 0)
(1.01528e-05 0.000224224 0)
(-3.72205e-05 0.000224789 0)
(-8.53748e-05 0.000222262 0)
(-0.000125661 0.000221721 0)
(-0.000161566 0.000221883 0)
(-0.000195582 0.000222019 0)
(-0.000228667 0.000221977 0)
(-0.000261147 0.000221621 0)
(-0.000293107 0.000220887 0)
(-0.00032447 0.000219751 0)
(-0.000355046 0.000218203 0)
(-0.000384572 0.000216225 0)
(-0.000412725 0.00021379 0)
(-0.000439137 0.000210862 0)
(-0.0004634 0.000207404 0)
(-0.000485072 0.00020338 0)
(-0.000503683 0.000198759 0)
(-0.000518747 0.000193528 0)
(-0.000529764 0.000187699 0)
(-0.000536238 0.000181303 0)
(-0.000537756 0.000174259 0)
(-0.00053411 0.000166094 0)
(-0.000524789 0.000156876 0)
(-0.000509321 0.000146865 0)
(-0.000487368 0.000136487 0)
(-0.000458877 0.000126351 0)
(-0.000424145 0.000117234 0)
(-0.000383854 0.000109976 0)
(-0.000339066 0.000105393 0)
(-0.000291185 0.000104124 0)
(-0.000241838 0.000106441 0)
(-0.00019272 0.000112257 0)
(-0.000145496 0.000120908 0)
(-0.000101641 0.00013146 0)
(-6.21393e-05 0.000142758 0)
(-2.7555e-05 0.000153667 0)
(2.03366e-06 0.000163653 0)
(2.6605e-05 0.000172388 0)
(4.64652e-05 0.000179872 0)
(-4.59029e-06 5.08382e-05 0)
(-2.82711e-05 7.96519e-05 0)
(-7.21233e-05 7.82367e-05 0)
(-0.000120893 7.29544e-05 0)
(-0.000168851 6.94559e-05 0)
(-0.000215407 6.76915e-05 0)
(-0.000260719 6.68812e-05 0)
(-0.000304899 6.64154e-05 0)
(-0.000347963 6.58501e-05 0)
(-0.000389852 6.48957e-05 0)
(-0.000430419 6.33682e-05 0)
(-0.000469432 6.11393e-05 0)
(-0.000506585 5.81027e-05 0)
(-0.000541516 5.41589e-05 0)
(-0.000573815 4.92118e-05 0)
(-0.000603036 4.31723e-05 0)
(-0.000628705 3.59595e-05 0)
(-0.000650333 2.75093e-05 0)
(-0.000667427 1.77892e-05 0)
(-0.000679508 6.82177e-06 0)
(-0.000686139 -5.294e-06 0)
(-0.000686986 -1.83844e-05 0)
(-0.000681605 -3.23219e-05 0)
(-0.000669594 -4.77737e-05 0)
(-0.000650648 -6.4488e-05 0)
(-0.000624615 -8.18559e-05 0)
(-0.000591596 -9.90143e-05 0)
(-0.000551999 -0.000114885 0)
(-0.000506572 -0.000128302 0)
(-0.000456402 -0.000138134 0)
(-0.00040288 -0.00014347 0)
(-0.000347612 -0.000143858 0)
(-0.000292287 -0.00013931 0)
(-0.00023854 -0.000130516 0)
(-0.000187791 -0.000118532 0)
(-0.0001411 -0.000104618 0)
(-9.91421e-05 -9.01465e-05 0)
(-6.22159e-05 -7.60615e-05 0)
(-3.03613e-05 -6.2938e-05 0)
(-3.4113e-06 -5.10761e-05 0)
(-1.0543e-05 6.47253e-05 0)
(-4.30149e-05 0.000112507 0)
(-9.17579e-05 0.000124843 0)
(-0.00014623 0.000125321 0)
(-0.000201772 0.000123348 0)
(-0.000256891 0.000121581 0)
(-0.000310918 0.000120301 0)
(-0.000363524 0.000119182 0)
(-0.000414509 0.00011784 0)
(-0.000463694 0.000115953 0)
(-0.000510858 0.000113273 0)
(-0.000555729 0.000109602 0)
(-0.00059798 0.000104773 0)
(-0.00063724 9.86337e-05 0)
(-0.000673101 9.10494e-05 0)
(-0.000705128 8.19018e-05 0)
(-0.000732873 7.10924e-05 0)
(-0.000755885 5.85515e-05 0)
(-0.000773721 4.42537e-05 0)
(-0.000785966 2.82401e-05 0)
(-0.000792258 1.06265e-05 0)
(-0.00079226 -8.45171e-06 0)
(-0.000785452 -2.91795e-05 0)
(-0.00077154 -5.18521e-05 0)
(-0.000750325 -7.60565e-05 0)
(-0.000721793 -0.000100981 0)
(-0.000686138 -0.000125504 0)
(-0.000643813 -0.000148245 0)
(-0.000595569 -0.000167713 0)
(-0.000542465 -0.000182457 0)
(-0.000485849 -0.000191299 0)
(-0.000427281 -0.000193621 0)
(-0.00036842 -0.000189376 0)
(-0.000310877 -0.00017934 0)
(-0.000256068 -0.000164786 0)
(-0.000205098 -0.000147298 0)
(-0.000158718 -0.000128562 0)
(-0.000117332 -0.000109768 0)
(-8.10779e-05 -9.16967e-05 0)
(-4.99058e-05 -7.48462e-05 0)
(-1.11924e-05 9.76485e-05 0)
(-4.73752e-05 0.000170162 0)
(-0.000102146 0.000192728 0)
(-0.000162802 0.000196904 0)
(-0.00022448 0.000195526 0)
(-0.000285722 0.000192921 0)
(-0.000345703 0.00019013 0)
(-0.000403914 0.000187129 0)
(-0.000460029 0.000183641 0)
(-0.000513779 0.000179363 0)
(-0.000564889 0.000174021 0)
(-0.000613062 0.000167379 0)
(-0.000657967 0.000159232 0)
(-0.000699246 0.000149396 0)
(-0.000736518 0.000137712 0)
(-0.000769388 0.000124049 0)
(-0.000797457 0.000108306 0)
(-0.000820329 9.04226e-05 0)
(-0.000837618 7.03944e-05 0)
(-0.000848971 4.82922e-05 0)
(-0.000854077 2.4258e-05 0)
(-0.000852585 -1.59601e-06 0)
(-0.000844026 -2.95576e-05 0)
(-0.000828207 -5.96414e-05 0)
(-0.000804982 -9.12725e-05 0)
(-0.000774398 -0.000123465 0)
(-0.000736683 -0.000154881 0)
(-0.000692296 -0.000183866 0)
(-0.000641974 -0.000208636 0)
(-0.000586762 -0.000227443 0)
(-0.000528003 -0.000238844 0)
(-0.000467277 -0.000242069 0)
(-0.000406283 -0.000237034 0)
(-0.000346688 -0.000224651 0)
(-0.000289959 -0.000206457 0)
(-0.000237255 -0.00018439 0)
(-0.000189344 -0.000160522 0)
(-0.000146629 -0.000136342 0)
(-0.000109239 -0.000112858 0)
(-7.70908e-05 -9.07196e-05 0)
(-1.14555e-05 0.000125574 0)
(-4.95558e-05 0.000221048 0)
(-0.000107721 0.000252528 0)
(-0.000171895 0.000259791 0)
(-0.000236982 0.000258779 0)
(-0.000301515 0.000255157 0)
(-0.000364576 0.000250601 0)
(-0.000425549 0.000245377 0)
(-0.000484026 0.000239327 0)
(-0.000539673 0.000232188 0)
(-0.000592182 0.000223686 0)
(-0.000641243 0.00021357 0)
(-0.000686533 0.000201614 0)
(-0.000727722 0.000187617 0)
(-0.000764468 0.000171407 0)
(-0.000796429 0.00015285 0)
(-0.000823261 0.000131848 0)
(-0.000844625 0.000108348 0)
(-0.000860197 8.23627e-05 0)
(-0.000869681 5.39853e-05 0)
(-0.000872817 2.33786e-05 0)
(-0.000869212 -9.33753e-06 0)
(-0.0008585 -4.45035e-05 0)
(-0.000840512 -8.19301e-05 0)
(-0.000815133 -0.000120897 0)
(-0.000782423 -0.00016027 0)
(-0.00074261 -0.000198521 0)
(-0.000696137 -0.000233745 0)
(-0.000643737 -0.000263863 0)
(-0.000586468 -0.000286817 0)
(-0.000525727 -0.000300874 0)
(-0.000463186 -0.000305079 0)
(-0.000400671 -0.000299278 0)
(-0.000339987 -0.000284514 0)
(-0.000282719 -0.000262587 0)
(-0.000230104 -0.000235803 0)
(-0.00018292 -0.000206667 0)
(-0.000141504 -0.000176994 0)
(-0.00010589 -0.000148049 0)
(-7.58577e-05 -0.000120673 0)
(-1.14888e-05 0.00015305 0)
(-4.99366e-05 0.000271999 0)
(-0.000108735 0.000312979 0)
(-0.000173577 0.000323608 0)
(-0.000239306 0.000323052 0)
(-0.000304388 0.000318392 0)
(-0.000367823 0.000311956 0)
(-0.000428925 0.000304313 0)
(-0.000487226 0.000295445 0)
(-0.000542356 0.000285147 0)
(-0.000593986 0.000273169 0)
(-0.000641804 0.000259264 0)
(-0.000685507 0.000243205 0)
(-0.000724795 0.000224789 0)
(-0.000759373 0.000203843 0)
(-0.000788947 0.000180234 0)
(-0.000813231 0.00015387 0)
(-0.000831943 0.000124708 0)
(-0.000844813 9.27721e-05 0)
(-0.000851603 5.81611e-05 0)
(-0.000852089 2.10364e-05 0)
(-0.000845776 -1.85036e-05 0)
(-0.000832459 -6.08585e-05 0)
(-0.000811904 -0.00010561 0)
(-0.000784005 -0.000151904 0)
(-0.000748811 -0.000198468 0)
(-0.000706528 -0.000243596 0)
(-0.000657581 -0.000285119 0)
(-0.00060271 -0.000320644 0)
(-0.000543027 -0.000347759 0)
(-0.000480027 -0.000364388 0)
(-0.00041555 -0.00036935 0)
(-0.000351623 -0.000362389 0)
(-0.000290268 -0.000344702 0)
(-0.000233242 -0.000318381 0)
(-0.0001819 -0.000286155 0)
(-0.000137062 -0.000251059 0)
(-9.89538e-05 -0.000215277 0)
(-6.74687e-05 -0.00018038 0)
(-4.2207e-05 -0.000147474 0)
(-1.10283e-05 0.000180494 0)
(-4.8227e-05 0.000323033 0)
(-0.000105314 0.000373715 0)
(-0.000168342 0.000387775 0)
(-0.000232239 0.000387629 0)
(-0.000295425 0.00038181 0)
(-0.000356844 0.000373311 0)
(-0.000415767 0.000363015 0)
(-0.000471694 0.000351056 0)
(-0.000524234 0.000337305 0)
(-0.00057305 0.00032155 0)
(-0.000617837 0.000303567 0)
(-0.000658314 0.000283141 0)
(-0.000694213 0.000260079 0)
(-0.000725282 0.000234217 0)
(-0.000751273 0.000205427 0)
(-0.000771948 0.000173626 0)
(-0.000787074 0.00013878 0)
(-0.000796428 0.000100916 0)
(-0.000799827 6.01235e-05 0)
(-0.000797049 1.65287e-05 0)
(-0.000787439 -2.98013e-05 0)
(-0.000771003 -7.92821e-05 0)
(-0.000747385 -0.0001313 0)
(-0.000716471 -0.000184883 0)
(-0.000678277 -0.000238631 0)
(-0.000632972 -0.000290645 0)
(-0.000580974 -0.000338476 0)
(-0.000523048 -0.000379367 0)
(-0.000460393 -0.000410496 0)
(-0.000394643 -0.000429392 0)
(-0.000327879 -0.000434587 0)
(-0.000262364 -0.000425706 0)
(-0.000200432 -0.000404121 0)
(-0.000144028 -0.000372255 0)
(-9.46114e-05 -0.00033329 0)
(-5.31824e-05 -0.000290956 0)
(-1.9821e-05 -0.000247887 0)
(5.79254e-06 -0.000205983 0)
(2.41538e-05 -0.000166857 0)
(-1.01169e-05 0.0002065 0)
(-4.46716e-05 0.000371626 0)
(-9.80362e-05 0.000431729 0)
(-0.000157111 0.000449132 0)
(-0.00021705 0.000449332 0)
(-0.000276255 0.000442268 0)
(-0.000333641 0.00043159 0)
(-0.00038846 0.000418499 0)
(-0.000440194 0.000403288 0)
(-0.000488444 0.000385916 0)
(-0.000532875 0.000366221 0)
(-0.000573195 0.000344012 0)
(-0.000609144 0.000319101 0)
(-0.000640485 0.000291311 0)
(-0.000667 0.00026049 0)
(-0.00068848 0.000226521 0)
(-0.000704722 0.000189329 0)
(-0.000715526 0.000148885 0)
(-0.000720708 0.000105215 0)
(-0.00072013 5.83789e-05 0)
(-0.000713521 8.43247e-06 0)
(-0.000700122 -4.46283e-05 0)
(-0.000680043 -0.000101125 0)
(-0.000652833 -0.000160335 0)
(-0.00061835 -0.000221185 0)
(-0.000576554 -0.000282137 0)
(-0.000527592 -0.00034107 0)
(-0.00047188 -0.000395226 0)
(-0.000410236 -0.000441431 0)
(-0.000344001 -0.00047638 0)
(-0.000274951 -0.000497177 0)
(-0.000205523 -0.000502 0)
(-0.000138121 -0.000490277 0)
(-7.55698e-05 -0.000463578 0)
(-1.99455e-05 -0.000424698 0)
(2.74116e-05 -0.000377126 0)
(6.47706e-05 -0.00032595 0)
(9.23925e-05 -0.000274262 0)
(0.000110723 -0.000224488 0)
(0.000120655 -0.00017826 0)
(-8.861e-06 0.000230015 0)
(-3.96508e-05 0.000415946 0)
(-8.76377e-05 0.000484939 0)
(-0.000140999 0.000505555 0)
(-0.000195241 0.000506078 0)
(-0.000248777 0.00049776 0)
(-0.000300515 0.000484883 0)
(-0.0003497 0.000468966 0)
(-0.000395812 0.000450467 0)
(-0.000438452 0.000429438 0)
(-0.000477292 0.000405778 0)
(-0.000512054 0.000379337 0)
(-0.000542501 0.000349958 0)
(-0.000568419 0.000317488 0)
(-0.000589617 0.000281788 0)
(-0.000605914 0.000242752 0)
(-0.000617128 0.000200307 0)
(-0.000623068 0.000154422 0)
(-0.000623573 0.00010512 0)
(-0.000618506 5.24423e-05 0)
(-0.000607324 -3.59146e-06 0)
(-0.000589908 -6.33797e-05 0)
(-0.000565683 -0.000126846 0)
(-0.000534325 -0.000193232 0)
(-0.000495667 -0.000261376 0)
(-0.000449595 -0.000329607 0)
(-0.000396272 -0.00039551 0)
(-0.000336141 -0.000456 0)
(-0.000270109 -0.000507457 0)
(-0.000199755 -0.000546009 0)
(-0.000126887 -0.000568273 0)
(-5.45962e-05 -0.000571972 0)
(1.51549e-05 -0.000556116 0)
(7.84104e-05 -0.00052258 0)
(0.000132997 -0.000475127 0)
(0.000177501 -0.000418149 0)
(0.000210781 -0.000356485 0)
(0.000232522 -0.000294371 0)
(0.000243159 -0.00023492 0)
(0.000243759 -0.000180179 0)
(-7.36087e-06 0.000250332 0)
(-3.35555e-05 0.000454732 0)
(-7.49094e-05 0.000531898 0)
(-0.000121212 0.000555566 0)
(-0.000168428 0.000556422 0)
(-0.000215013 0.000546901 0)
(-0.000259886 0.000531884 0)
(-0.000302301 0.000513199 0)
(-0.000341741 0.000491473 0)
(-0.000377812 0.000466856 0)
(-0.000410199 0.000439311 0)
(-0.000438639 0.000408736 0)
(-0.000462909 0.000375006 0)
(-0.000482816 0.000337997 0)
(-0.000498187 0.000297581 0)
(-0.000508856 0.000253659 0)
(-0.000514649 0.000206153 0)
(-0.000515375 0.000155018 0)
(-0.000510871 0.000100244 0)
(-0.000500962 4.18434e-05 0)
(-0.000484803 -2.01623e-05 0)
(-0.000462708 -8.65472e-05 0)
(-0.000433718 -0.000156984 0)
(-0.000397539 -0.000230583 0)
(-0.000353994 -0.000306073 0)
(-0.000302854 -0.000381682 0)
(-0.000244407 -0.000454602 0)
(-0.000179143 -0.000521423 0)
(-0.000108151 -0.000578024 0)
(-3.33414e-05 -0.000619898 0)
(4.40087e-05 -0.000642936 0)
(0.000119012 -0.000644063 0)
(0.000189961 -0.000623163 0)
(0.000253867 -0.000582009 0)
(0.000308097 -0.000524554 0)
(0.00035055 -0.000456016 0)
(0.000379885 -0.000381968 0)
(0.000395651 -0.000307505 0)
(0.000398294 -0.000236518 0)
(0.000389008 -0.000171621 0)
(-5.71687e-06 0.000266968 0)
(-2.67845e-05 0.000487084 0)
(-6.06599e-05 0.000571539 0)
(-9.89755e-05 0.000598058 0)
(-0.00013824 0.000599276 0)
(-0.000176983 0.000588654 0)
(-0.000214157 0.000571621 0)
(-0.000249032 0.000550301 0)
(-0.0002811 0.000525488 0)
(-0.000309979 0.000497433 0)
(-0.000335362 0.000466167 0)
(-0.000357001 0.000431635 0)
(-0.000374683 0.000393748 0)
(-0.000388224 0.000352405 0)
(-0.000397459 0.000307492 0)
(-0.000402224 0.000258908 0)
(-0.000402335 0.000206561 0)
(-0.000397587 0.000150371 0)
(-0.00038779 9.02639e-05 0)
(-0.000372632 2.6176e-05 0)
(-0.000351011 -4.18343e-05 0)
(-0.000323571 -0.000114757 0)
(-0.000289056 -0.000192204 0)
(-0.000247207 -0.00027309 0)
(-0.000197915 -0.000356002 0)
(-0.000140788 -0.00043914 0)
(-7.65213e-05 -0.000519134 0)
(-5.41356e-06 -0.000592461 0)
(7.09701e-05 -0.00065388 0)
(0.000149915 -0.000697892 0)
(0.000229871 -0.000720497 0)
(0.000307949 -0.0007187 0)
(0.000381297 -0.000691904 0)
(0.000446633 -0.000641879 0)
(0.000500876 -0.000572892 0)
(0.000541522 -0.000490919 0)
(0.000566973 -0.000402457 0)
(0.000576686 -0.000313559 0)
(0.000571126 -0.000228994 0)
(0.000551584 -0.000152084 0)
(-4.02665e-06 0.000279657 0)
(-1.97245e-05 0.000512461 0)
(-4.56705e-05 0.00060318 0)
(-7.54678e-05 0.000632298 0)
(-0.000106235 0.000633916 0)
(-0.000136612 0.000622334 0)
(-0.0001656 0.000603461 0)
(-0.000192499 0.000579698 0)
(-0.000216813 0.000552001 0)
(-0.000238169 0.000520723 0)
(-0.000256271 0.000485961 0)
(-0.000270875 0.000447705 0)
(-0.000281774 0.0004059 0)
(-0.000288779 0.000360462 0)
(-0.000291713 0.000311288 0)
(-0.000290398 0.000258268 0)
(-0.000284617 0.000201277 0)
(-0.00027413 0.000140178 0)
(-0.000258652 7.48067e-05 0)
(-0.000237369 5.07154e-06 0)
(-0.000209952 -6.91254e-05 0)
(-0.000176345 -0.000148648 0)
(-0.000135341 -0.000233266 0)
(-8.68616e-05 -0.00032161 0)
(-3.08549e-05 -0.000412235 0)
(3.33625e-05 -0.00050368 0)
(0.000103608 -0.000590306 0)
(0.000179714 -0.00066866 0)
(0.000260324 -0.000733556 0)
(0.000343705 -0.000779522 0)
(0.000427746 -0.000801656 0)
(0.000509551 -0.000796412 0)
(0.000585773 -0.000762782 0)
(0.00065277 -0.000702555 0)
(0.00070708 -0.000620365 0)
(0.000745865 -0.00052297 0)
(0.000767299 -0.000417927 0)
(0.00077075 -0.000312385 0)
(0.000756702 -0.000212107 0)
(0.00072647 -0.000121275 0)
(-2.37822e-06 0.000288349 0)
(-1.27274e-05 0.000530671 0)
(-3.06552e-05 0.000626514 0)
(-5.17686e-05 0.000657926 0)
(-7.3843e-05 0.000659977 0)
(-9.56594e-05 0.000647597 0)
(-0.000116293 0.000627097 0)
(-0.000135077 0.000601126 0)
(-0.000151532 0.000570791 0)
(-0.000165289 0.000536543 0)
(-0.000176057 0.000498544 0)
(-0.000183592 0.000456828 0)
(-0.00018768 0.000411362 0)
(-0.000188101 0.000362072 0)
(-0.00018465 0.00030886 0)
(-0.000177108 0.000251595 0)
(-0.000165202 0.000190097 0)
(-0.000148636 0.000124125 0)
(-0.000126935 5.33586e-05 0)
(-9.84938e-05 -2.20977e-05 0)
(-6.45206e-05 -0.000102741 0)
(-2.35928e-05 -0.000189317 0)
(2.52285e-05 -0.000282163 0)
(8.10442e-05 -0.000378192 0)
(0.000144163 -0.000476206 0)
(0.000214208 -0.000573542 0)
(0.000290418 -0.000666226 0)
(0.000372202 -0.000749697 0)
(0.000458244 -0.000818272 0)
(0.000546785 -0.000865896 0)
(0.000635468 -0.000887016 0)
(0.000721204 -0.000877531 0)
(0.000800318 -0.000835962 0)
(0.000868835 -0.000764056 0)
(0.00092295 -0.000666848 0)
(0.000959525 -0.000551944 0)
(0.000976535 -0.000428078 0)
(0.000973272 -0.000303632 0)
(0.000950188 -0.000185488 0)
(0.000908591 -7.8803e-05 0)
(-8.46588e-07 0.000293181 0)
(-6.09604e-06 0.00054184 0)
(-1.62343e-05 0.000641584 0)
(-2.88226e-05 0.000674928 0)
(-4.232e-05 0.000677422 0)
(-5.56814e-05 0.000664413 0)
(-6.8071e-05 0.000642518 0)
(-7.88634e-05 0.000614596 0)
(-8.75905e-05 0.00058189 0)
(-9.38847e-05 0.000544942 0)
(-9.74449e-05 0.000503973 0)
(-9.80149e-05 0.000459055 0)
(-9.53572e-05 0.000410176 0)
(-8.91961e-05 0.000357245 0)
(-7.92701e-05 0.00030017 0)
(-6.5283e-05 0.000238764 0)
(-4.68618e-05 0.000172746 0)
(-2.36173e-05 0.000101658 0)
(5.31922e-06 2.46534e-05 0)
(4.15152e-05 -5.73523e-05 0)
(8.34126e-05 -0.000144895 0)
(0.000132553 -0.00023868 0)
(0.000188953 -0.000338032 0)
(0.00025245 -0.000441221 0)
(0.000323066 -0.000546259 0)
(0.000400307 -0.000650109 0)
(0.000483494 -0.000748655 0)
(0.000571792 -0.000836856 0)
(0.000663865 -0.000908621 0)
(0.000757845 -0.000957326 0)
(0.000851205 -0.000976702 0)
(0.000940665 -0.000961986 0)
(0.0010223 -0.000911202 0)
(0.00109183 -0.000826011 0)
(0.00114515 -0.00071187 0)
(0.00117885 -0.000577304 0)
(0.00119072 -0.00043233 0)
(0.00117998 -0.000286687 0)
(0.00114696 -0.000148511 0)
(0.00109336 -2.39244e-05 0)
(5.1612e-07 0.000294432 0)
(-6.23762e-08 0.000546348 0)
(-2.90843e-06 0.000648739 0)
(-7.41419e-06 0.000683601 0)
(-1.27282e-05 0.00068652 0)
(-1.80033e-05 0.000673038 0)
(-2.25041e-05 0.000649981 0)
(-2.56486e-05 0.000620368 0)
(-2.69756e-05 0.000585557 0)
(-2.61055e-05 0.000546166 0)
(-2.27101e-05 0.000502466 0)
(-1.64901e-05 0.000454551 0)
(-7.15291e-06 0.000402389 0)
(5.66405e-06 0.000345733 0)
(2.22528e-05 0.000284679 0)
(4.30612e-05 0.000218885 0)
(6.8587e-05 0.000147908 0)
(9.93652e-05 7.11519e-05 0)
(0.000137125 -1.17366e-05 0)
(0.000180706 -0.000100194 0)
(0.000231268 -0.000194736 0)
(0.000289349 -0.000295748 0)
(0.000354753 -0.000402312 0)
(0.000427249 -0.00051264 0)
(0.000506549 -0.000624404 0)
(0.000592058 -0.000734352 0)
(0.000682977 -0.000838202 0)
(0.00077828 -0.000930528 0)
(0.000876547 -0.00100479 0)
(0.000975822 -0.00105375 0)
(0.00107346 -0.00107042 0)
(0.00116603 -0.0010493 0)
(0.00124941 -0.000987876 0)
(0.00131907 -0.000887686 0)
(0.00137062 -0.000754626 0)
(0.00140043 -0.000598197 0)
(0.00140615 -0.000429803 0)
(0.00138687 -0.000260681 0)
(0.00134279 -0.00010028 0)
(0.00127781 4.54957e-05 0)
(1.70952e-06 0.000292578 0)
(5.27351e-06 0.000544804 0)
(8.99095e-06 0.000648509 0)
(1.18589e-05 0.00068443 0)
(1.40818e-05 0.000687726 0)
(1.6295e-05 0.000673905 0)
(1.91234e-05 0.000649886 0)
(2.3106e-05 0.000618796 0)
(2.8705e-05 0.000582076 0)
(3.63275e-05 0.000540402 0)
(4.63482e-05 0.000494074 0)
(5.91319e-05 0.000443192 0)
(7.50471e-05 0.000387724 0)
(9.44826e-05 0.000327525 0)
(0.000117887 0.000262421 0)
(0.000145846 0.000192016 0)
(0.00017897 0.000115706 0)
(0.000218114 3.27465e-05 0)
(0.000265139 -5.67294e-05 0)
(0.000318297 -0.000152198 0)
(0.000379151 -0.000254166 0)
(0.000447753 -0.000362608 0)
(0.000523731 -0.000476373 0)
(0.000606593 -0.000593544 0)
(0.000695711 -0.000711554 0)
(0.000790279 -0.000826961 0)
(0.000889329 -0.000935294 0)
(0.000991693 -0.00103082 0)
(0.00109587 -0.00110657 0)
(0.00119985 -0.0011547 0)
(0.00130093 -0.00116746 0)
(0.00139557 -0.00113858 0)
(0.0014795 -0.00106495 0)
(0.00154799 -0.000947968 0)
(0.00159644 -0.000793949 0)
(0.001621 -0.000613439 0)
(0.00161919 -0.000419309 0)
(0.00158989 -0.000224421 0)
(0.00153333 -3.97908e-05 0)
(0.00145398 0.000128216 0)
(2.74508e-06 0.000287913 0)
(9.88735e-06 0.000537954 0)
(1.92858e-05 0.000641778 0)
(2.85973e-05 0.000678237 0)
(3.74778e-05 0.000681775 0)
(4.63611e-05 0.00066768 0)
(5.57588e-05 0.000642853 0)
(6.6167e-05 0.000610463 0)
(7.80573e-05 0.000572002 0)
(9.18785e-05 0.000528174 0)
(0.000108072 0.000479293 0)
(0.00012709 0.000425449 0)
(0.000149413 0.000366584 0)
(0.000175567 0.000302514 0)
(0.000206188 0.00023293 0)
(0.000242034 0.000157289 0)
(0.000283974 7.48033e-05 0)
(0.000333981 -1.51947e-05 0)
(0.000390983 -0.000111869 0)
(0.000455771 -0.000215012 0)
(0.00052884 -0.000324833 0)
(0.000609796 -0.000440842 0)
(0.000697922 -0.000561615 0)
(0.000792342 -0.000685076 0)
(0.000892073 -0.000808503 0)
(0.000996059 -0.000928336 0)
(0.00110317 -0.00103996 0)
(0.00121215 -0.00113741 0)
(0.00132145 -0.00121331 0)
(0.00142908 -0.00125924 0)
(0.0015323 -0.00126667 0)
(0.00162753 -0.0012285 0)
(0.00171039 -0.00114099 0)
(0.00177601 -0.00100534 0)
(0.0018196 -0.0008283 0)
(0.0018372 -0.000621519 0)
(0.00182622 -0.000399438 0)
(0.00178537 -0.000176507 0)
(0.00171705 3.62192e-05 0)
(0.00162055 0.000227152 0)
(3.6074e-06 0.000280871 0)
(1.37189e-05 0.000526599 0)
(2.78226e-05 0.000629515 0)
(4.24965e-05 0.00066604 0)
(5.69655e-05 0.000669662 0)
(7.14993e-05 0.000655306 0)
(8.65141e-05 0.000629757 0)
(0.000102477 0.000596168 0)
(0.000119888 0.00055603 0)
(0.000139264 0.000510048 0)
(0.000161152 0.000458519 0)
(0.000186139 0.0004015 0)
(0.000214879 0.000338876 0)
(0.00024812 0.000270376 0)
(0.00028674 0.000195525 0)
(0.000331751 0.000113569 0)
(0.000384611 2.35965e-05 0)
(0.000446841 -7.44099e-05 0)
(0.000516896 -0.000179216 0)
(0.000595798 -0.000290765 0)
(0.00068326 -0.000408732 0)
(0.000778378 -0.000532144 0)
(0.000879966 -0.000659321 0)
(0.000986717 -0.000788066 0)
(0.00109731 -0.000915605 0)
(0.00121048 -0.00103837 0)
(0.001325 -0.00115168 0)
(0.00143956 -0.00124941 0)
(0.00155268 -0.00132385 0)
(0.00166239 -0.00136596 0)
(0.001766 -0.00136643 0)
(0.00185991 -0.00131729 0)
(0.00193968 -0.00121412 0)
(0.00200031 -0.00105787 0)
(0.00203692 -0.000855744 0)
(0.00204542 -0.000620522 0)
(0.00202308 -0.000368315 0)
(0.0019685 -0.000115379 0)
(0.00188476 0.000126531 0)
(0.00177139 0.000342466 0)
(4.28129e-06 0.000271913 0)
(1.67055e-05 0.000511619 0)
(3.4459e-05 0.000612797 0)
(5.3301e-05 0.000648978 0)
(7.21468e-05 0.000652512 0)
(9.11565e-05 0.000637853 0)
(0.000110689 0.000611592 0)
(0.000131217 0.000576798 0)
(0.000153303 0.000534914 0)
(0.000177584 0.000486601 0)
(0.000204772 0.000432097 0)
(0.000235668 0.000371388 0)
(0.000271192 0.000304259 0)
(0.00031241 0.000230291 0)
(0.000360549 0.00014879 0)
(0.0004171 5.87749e-05 0)
(0.000484453 -4.05753e-05 0)
(0.000560839 -0.000147498 0)
(0.000646919 -0.000261447 0)
(0.000742427 -0.000381874 0)
(0.00084628 -0.000507835 0)
(0.000956948 -0.000637922 0)
(0.00107272 -0.00077029 0)
(0.00119188 -0.00090273 0)
(0.00131287 -0.00103255 0)
(0.00143428 -0.00115628 0)
(0.00155487 -0.0012693 0)
(0.0016734 -0.00136538 0)
(0.00178848 -0.00143647 0)
(0.00189824 -0.00147297 0)
(0.00200006 -0.0014647 0)
(0.00209034 -0.00140279 0)
(0.00216461 -0.00128208 0)
(0.00221779 -0.00110326 0)
(0.00224494 -0.000874004 0)
(0.00224196 -0.000608253 0)
(0.00220603 -0.000323779 0)
(0.00213594 -3.85223e-05 0)
(0.0020342 0.000233718 0)
(0.00190249 0.000475348 0)
(4.75725e-06 0.00026152 0)
(1.87991e-05 0.000493956 0)
(3.90804e-05 0.000592788 0)
(6.08079e-05 0.000628302 0)
(8.27146e-05 0.000631576 0)
(0.000104919 0.000616515 0)
(0.000127781 0.000589449 0)
(0.000151832 0.000553298 0)
(0.000177766 0.000509397 0)
(0.000206412 0.000458305 0)
(0.000238744 0.000400148 0)
(0.000275892 0.000334779 0)
(0.000319167 0.000261819 0)
(0.000370074 0.000180632 0)
(0.000430381 9.02533e-05 0)
(0.000502562 -1.04442e-05 0)
(0.000586308 -0.000120211 0)
(0.000680893 -0.000237481 0)
(0.000786037 -0.000361324 0)
(0.0009004 -0.000490528 0)
(0.00102207 -0.000623609 0)
(0.00114889 -0.000758893 0)
(0.00127868 -0.000894533 0)
(0.00140946 -0.00102847 0)
(0.00153953 -0.00115823 0)
(0.00166748 -0.00128059 0)
(0.00179215 -0.00139103 0)
(0.00191246 -0.00148329 0)
(0.00202715 -0.00154901 0)
(0.0021345 -0.00157795 0)
(0.00223197 -0.00155905 0)
(0.00231598 -0.00148247 0)
(0.002382 -0.00134225 0)
(0.00242492 -0.00113886 0)
(0.0024398 -0.000880473 0)
(0.0024226 -0.000582283 0)
(0.0023705 -0.00026365 0)
(0.0022841 5.76504e-05 0)
(0.00216143 0.000360475 0)
(0.00200945 0.000627565 0)
(5.03041e-06 0.000250197 0)
(1.9969e-05 0.000474597 0)
(4.16073e-05 0.000570718 0)
(6.4877e-05 0.000605345 0)
(8.84648e-05 0.000608195 0)
(0.00011253 0.000592563 0)
(0.000137515 0.000564458 0)
(0.000164097 0.000526586 0)
(0.000193194 0.000480099 0)
(0.00022595 0.000425379 0)
(0.000263736 0.000362363 0)
(0.000308166 0.000290696 0)
(0.000361099 0.000209763 0)
(0.000424674 0.000118651 0)
(0.000501547 1.61515e-05 0)
(0.000592996 -9.74082e-05 0)
(0.000697127 -0.000219162 0)
(0.000813347 -0.000347684 0)
(0.00093995 -0.000481311 0)
(0.00107453 -0.000618221 0)
(0.0012144 -0.000756612 0)
(0.00135687 -0.000894781 0)
(0.00149947 -0.00103108 0)
(0.0016401 -0.00116377 0)
(0.0017771 -0.00129075 0)
(0.00190918 -0.00140909 0)
(0.00203535 -0.00151448 0)
(0.00215474 -0.00160063 0)
(0.0022663 -0.00165884 0)
(0.00236844 -0.00167821 0)
(0.00245869 -0.00164671 0)
(0.00253349 -0.00155346 0)
(0.00258825 -0.0013917 0)
(0.00261782 -0.00116169 0)
(0.00261727 -0.000872151 0)
(0.00258261 -0.000539624 0)
(0.00251107 -0.000185189 0)
(0.00240348 0.000172553 0)
(0.00225906 0.000507519 0)
(0.00208568 0.000800052 0)
(5.09906e-06 0.000238457 0)
(2.02005e-05 0.000454563 0)
(4.20006e-05 0.000547864 0)
(6.54442e-05 0.000581487 0)
(8.93227e-05 0.000583739 0)
(0.00011394 0.000567264 0)
(0.000139928 0.000537687 0)
(0.000168234 0.000497419 0)
(0.000200145 0.000447338 0)
(0.000237287 0.000387551 0)
(0.000281623 0.000317708 0)
(0.000335458 0.000237162 0)
(0.000401421 0.00014501 0)
(0.000482555 4.00425e-05 0)
(0.00058154 -7.84171e-05 0)
(0.000695793 -0.000206109 0)
(0.000824219 -0.000340973 0)
(0.000964583 -0.000480653 0)
(0.00111385 -0.000622788 0)
(0.00126868 -0.000765226 0)
(0.00142579 -0.000906166 0)
(0.00158219 -0.00104415 0)
(0.00173533 -0.00117794 0)
(0.0018832 -0.00130625 0)
(0.00202426 -0.00142745 0)
(0.00215748 -0.00153899 0)
(0.00228211 -0.00163678 0)
(0.00239752 -0.00171448 0)
(0.00250287 -0.00176304 0)
(0.00259674 -0.00177079 0)
(0.00267669 -0.00172467 0)
(0.00273913 -0.00161267 0)
(0.00277938 -0.00142725 0)
(0.00279228 -0.00116849 0)
(0.00277297 -0.000845809 0)
(0.00271764 -0.000477091 0)
(0.00262353 -8.49697e-05 0)
(0.00249087 0.000310174 0)
(0.00232191 0.000677136 0)
(0.00212529 0.00099398 0)
(4.96414e-06 0.000226819 0)
(1.94968e-05 0.000434884 0)
(4.02717e-05 0.000525506 0)
(6.25475e-05 0.000558098 0)
(8.53903e-05 0.000559538 0)
(0.000109379 0.00054178 0)
(0.000135483 0.000509995 0)
(0.000165094 0.000466196 0)
(0.000200073 0.000410868 0)
(0.000242762 0.000343716 0)
(0.000295981 0.000263995 0)
(0.000363005 0.000170699 0)
(0.000447485 6.25913e-05 0)
(0.000553284 -6.18716e-05 0)
(0.00067772 -0.000197184 0)
(0.000819051 -0.000340431 0)
(0.000974351 -0.000488279 0)
(0.00113981 -0.000637576 0)
(0.00131132 -0.000785628 0)
(0.0014849 -0.000930353 0)
(0.00165696 -0.00107029 0)
(0.00182448 -0.00120447 0)
(0.00198504 -0.00133221 0)
(0.00213682 -0.00145281 0)
(0.00227858 -0.00156514 0)
(0.00240955 -0.00166706 0)
(0.00252928 -0.0017547 0)
(0.00263742 -0.00182165 0)
(0.00273332 -0.00185842 0)
(0.00281568 -0.0018525 0)
(0.00288208 -0.00178969 0)
(0.00292884 -0.00165681 0)
(0.00295116 -0.00144549 0)
(0.00294382 -0.00115579 0)
(0.0029021 -0.000797951 0)
(0.00282243 -0.000391147 0)
(0.00270302 4.31528e-05 0)
(0.00254119 0.000474863 0)
(0.0023445 0.000872257 0)
(0.00212241 0.00121096 0)
(4.62993e-06 0.00021579 0)
(1.78858e-05 0.000416573 0)
(3.65039e-05 0.000504884 0)
(5.63699e-05 0.000536465 0)
(7.70202e-05 0.000536769 0)
(9.94762e-05 0.000517017 0)
(0.000125246 0.000481828 0)
(0.000156405 0.000432684 0)
(0.000195666 0.000369518 0)
(0.000246411 0.000291479 0)
(0.000312665 0.000197318 0)
(0.000398974 8.55801e-05 0)
(0.000510111 -4.56472e-05 0)
(0.000644249 -0.000190464 0)
(0.000798647 -0.000344448 0)
(0.000969587 -0.00050303 0)
(0.00115235 -0.000661975 0)
(0.00134193 -0.000817822 0)
(0.00153355 -0.000968041 0)
(0.00172297 -0.00111101 0)
(0.00190662 -0.00124587 0)
(0.00208165 -0.00137233 0)
(0.00224591 -0.00149036 0)
(0.00239789 -0.00159987 0)
(0.00253667 -0.00170027 0)
(0.00266182 -0.00178981 0)
(0.00277317 -0.00186482 0)
(0.00287063 -0.00191878 0)
(0.00295374 -0.00194168 0)