/*--------------------------------*- C++ -*----------------------------------*\
  =========                 |
  \\      /  F ield         | OpenFOAM: The Open Source CFD Toolbox
   \\    /   O peration     | Website:  https://openfoam.org
    \\  /    A nd           | Version:  6
     \\/     M anipulation  |
\*---------------------------------------------------------------------------*/
FoamFile
{
    version     2.0;
    format      ascii;
    class       volScalarField;
    location    "20";
    object      chargeDensity;
}
// * * * * * * * * * * * * * * * * * * * * * * * * * * * * * * * * * * * * * //

dimensions      [0 -3 1 0 0 1 0];

internalField   nonuniform List<scalar> 
8800
(
0.000508786
0.000509959
0.000510447
0.000510623
0.000510625
0.000510531
0.000510381
0.0005102
0.00050999
0.000509752
0.000509488
0.000509197
0.00050888
0.000508538
0.00050817
0.000507777
0.00050736
0.00050692
0.000506457
0.000505973
0.000505467
0.000504935
0.000504372
0.000503787
0.00050318
0.000502547
0.000501885
0.000501185
0.00050044
0.000499643
0.000498788
0.00049788
0.000496923
0.000495936
0.000494943
0.000493962
0.000493022
0.000492132
0.000491299
0.000490527
0.000481331
0.000482298
0.000482837
0.000483024
0.000483034
0.000482958
0.000482834
0.000482676
0.000482489
0.000482277
0.000482039
0.000481776
0.000481489
0.000481176
0.00048084
0.00048048
0.000480097
0.000479691
0.000479263
0.000478814
0.000478343
0.000477845
0.000477306
0.000476742
0.000476153
0.000475536
0.000474888
0.000474202
0.000473471
0.000472687
0.000471845
0.000470952
0.000470012
0.000469044
0.000468071
0.00046711
0.000466192
0.000465324
0.000464512
0.000463759
0.000454018
0.000455123
0.000455655
0.000455868
0.000455905
0.000455851
0.000455746
0.000455609
0.000455445
0.000455256
0.000455042
0.000454804
0.000454541
0.000454255
0.000453944
0.00045361
0.000453252
0.000452871
0.000452467
0.000452041
0.000451591
0.000451109
0.000450574
0.000450012
0.000449421
0.000448801
0.000448148
0.000447456
0.000446721
0.000445935
0.000445094
0.000444205
0.000443273
0.000442318
0.00044136
0.000440421
0.000439526
0.00043868
0.000437891
0.00043716
0.00042714
0.000428525
0.000429117
0.00042934
0.000429383
0.000429339
0.000429248
0.000429127
0.00042898
0.00042881
0.000428615
0.000428396
0.000428152
0.000427883
0.00042759
0.000427271
0.000426926
0.000426557
0.000426162
0.000425743
0.000425297
0.000424807
0.000424258
0.000423677
0.000423065
0.000422421
0.000421745
0.00042103
0.000420274
0.000419472
0.000418619
0.000417724
0.000416791
0.000415841
0.000414894
0.000413971
0.000413094
0.000412272
0.000411506
0.000410797
0.00040089
0.000402578
0.000403268
0.000403517
0.000403568
0.000403531
0.000403448
0.000403338
0.000403203
0.000403044
0.000402861
0.000402652
0.000402417
0.000402156
0.000401868
0.000401551
0.000401206
0.000400832
0.00040043
0.0004
0.000399538
0.000399018
0.000398435
0.000397817
0.000397165
0.000396479
0.00039576
0.000395007
0.000394216
0.000393385
0.000392508
0.000391596
0.000390652
0.000389698
0.000388754
0.000387839
0.000386977
0.000386173
0.000385426
0.000384738
0.000375355
0.000377389
0.000378203
0.00037849
0.000378552
0.000378519
0.00037844
0.000378333
0.000378202
0.000378046
0.000377865
0.000377656
0.000377419
0.000377153
0.000376856
0.000376527
0.000376165
0.000375771
0.000375344
0.000374885
0.000374386
0.000373814
0.00037318
0.000372506
0.000371795
0.000371051
0.000370276
0.000369469
0.000368631
0.000367758
0.000366846
0.000365906
0.00036494
0.000363973
0.000363023
0.000362108
0.000361252
0.00036046
0.000359727
0.000359056
0.000350609
0.000353042
0.000354001
0.000354335
0.00035441
0.000354378
0.000354296
0.000354185
0.000354049
0.000353886
0.000353696
0.000353475
0.000353223
0.000352938
0.000352618
0.000352262
0.000351869
0.000351438
0.000350969
0.000350462
0.000349908
0.000349263
0.00034856
0.000347815
0.000347031
0.000346214
0.000345369
0.000344496
0.000343597
0.000342671
0.000341713
0.000340734
0.000339737
0.000338745
0.000337779
0.000336854
0.000335998
0.00033521
0.000334486
0.000333825
0.00032672
0.000329596
0.000330721
0.00033111
0.000331197
0.000331163
0.000331072
0.000330949
0.000330797
0.000330617
0.000330406
0.000330161
0.000329881
0.000329563
0.000329206
0.000328808
0.000328368
0.000327886
0.00032736
0.000326789
0.000326161
0.000325426
0.000324641
0.000323812
0.000322942
0.00032204
0.000321113
0.000320163
0.000319193
0.000318202
0.000317185
0.000316156
0.000315114
0.000314087
0.000313095
0.000312151
0.000311285
0.000310494
0.000309771
0.000309114
0.000303745
0.000307095
0.0003084
0.00030885
0.000308951
0.00030891
0.000308804
0.00030866
0.000308484
0.000308275
0.000308031
0.00030775
0.00030743
0.000307067
0.00030666
0.000306207
0.000305708
0.00030516
0.000304563
0.000303915
0.000303199
0.000302359
0.000301483
0.000300559
0.000299594
0.000298597
0.000297579
0.000296541
0.000295488
0.000294421
0.000293332
0.00029224
0.00029114
0.000290064
0.000289033
0.00028806
0.000287176
0.000286374
0.000285647
0.000284985
0.000281728
0.000285568
0.000287063
0.000287577
0.00028769
0.000287639
0.000287512
0.000287339
0.000287129
0.000286882
0.000286596
0.000286269
0.000285896
0.000285477
0.000285009
0.000284491
0.000283921
0.000283298
0.00028262
0.000281884
0.000281066
0.000280115
0.000279139
0.000278115
0.000277049
0.000275949
0.000274831
0.000273697
0.000272549
0.000271393
0.000270216
0.000269044
0.000267869
0.000266729
0.000265646
0.000264639
0.000263725
0.000262903
0.000262163
0.000261488
0.0002607
0.000265028
0.000266716
0.000267297
0.000267422
0.000267358
0.000267204
0.000266996
0.000266744
0.000266451
0.000266113
0.00026573
0.000265297
0.000264812
0.000264275
0.000263683
0.000263035
0.000262329
0.000261563
0.00026073
0.000259775
0.000258738
0.000257659
0.000256531
0.00025536
0.000254153
0.00025293
0.000251689
0.000250436
0.000249176
0.000247893
0.00024662
0.000245357
0.000244137
0.000242985
0.000241929
0.000240969
0.00024011
0.000239343
0.000238644
0.00024068
0.00024548
0.000247358
0.000248005
0.000248142
0.000248061
0.000247876
0.000247628
0.000247329
0.000246982
0.000246586
0.000246139
0.000245639
0.000245083
0.000244471
0.0002438
0.000243068
0.000242275
0.000241418
0.000240484
0.000239397
0.000238265
0.000237084
0.000235853
0.000234576
0.000233261
0.000231928
0.000230573
0.000229202
0.000227822
0.000226418
0.000225027
0.000223659
0.000222333
0.00022108
0.000219937
0.000218909
0.000218
0.000217193
0.000216463
0.000221679
0.000226917
0.000228977
0.00022969
0.000229837
0.000229738
0.000229519
0.000229226
0.000228875
0.00022847
0.000228011
0.000227497
0.000226925
0.000226294
0.000225603
0.00022485
0.000224034
0.000223153
0.000222203
0.000221169
0.000219953
0.000218728
0.000217449
0.000216118
0.000214739
0.000213314
0.000211869
0.000210395
0.000208897
0.000207388
0.000205861
0.000204324
0.000202801
0.000201324
0.00019993
0.000198665
0.000197542
0.000196563
0.000195702
0.000194929
0.000203698
0.000209328
0.000211557
0.000212332
0.000212488
0.00021237
0.000212115
0.000211775
0.00021137
0.000210904
0.000210379
0.000209795
0.00020915
0.000208443
0.000207672
0.000206838
0.000205938
0.000204971
0.00020393
0.000202773
0.000201462
0.000200148
0.000198776
0.000197352
0.000195877
0.000194341
0.00019279
0.000191206
0.000189589
0.000187937
0.000186246
0.000184524
0.0001828
0.000181117
0.000179531
0.000178098
0.000176844
0.000175767
0.000174834
0.000174005
0.000186731
0.000192695
0.000195075
0.000195909
0.000196073
0.000195936
0.000195644
0.000195256
0.000194795
0.000194267
0.000193676
0.000193022
0.000192304
0.000191521
0.000190673
0.000189759
0.000188779
0.000187729
0.000186602
0.0001853
0.00018393
0.000182537
0.000181075
0.000179567
0.000178006
0.000176391
0.000174742
0.000173049
0.000171303
0.000169491
0.000167605
0.000165651
0.000163668
0.000161715
0.00015987
0.00015821
0.000156775
0.000155563
0.000154533
0.00015363
0.000170767
0.000177
0.00017951
0.000180394
0.000180566
0.000180409
0.000180081
0.000179646
0.00017913
0.000178541
0.000177884
0.000177161
0.000176372
0.000175515
0.000174593
0.000173605
0.000172549
0.000171423
0.000170215
0.000168787
0.000167353
0.00016589
0.000164366
0.000162789
0.000161159
0.000159472
0.000157738
0.000155942
0.000154062
0.000152073
0.000149957
0.000147721
0.00014541
0.000143108
0.000140922
0.000138959
0.000137278
0.000135884
0.00013472
0.000133707
0.00015579
0.000162219
0.000164834
0.000165763
0.000165941
0.000165765
0.000165402
0.000164921
0.00016435
0.000163702
0.000162982
0.000162193
0.000161336
0.000160409
0.000159416
0.000158357
0.000157231
0.000156034
0.000154683
0.000153221
0.000151734
0.000150215
0.00014864
0.000147012
0.000145331
0.00014359
0.000141788
0.000139897
0.000137881
0.000135698
0.000133316
0.000130738
0.000128021
0.000125277
0.000122653
0.000120292
0.000118286
0.000116646
0.000115302
0.000114053
0.000141781
0.00014833
0.000151022
0.000151987
0.000152169
0.000151975
0.000151579
0.000151053
0.000150431
0.000149725
0.000148944
0.000148092
0.00014717
0.00014618
0.000145123
0.000144
0.000142809
0.000141548
0.000140078
0.000138581
0.000137053
0.000135494
0.000133885
0.000132227
0.000130517
0.000128743
0.00012689
0.000124916
0.000122763
0.000120369
0.000117682
0.000114698
0.000111488
0.000108195
0.000105017
0.000102147
9.97181e-05
9.77532e-05
9.61676e-05
9.47524e-05
0.000128712
0.000135308
0.000138049
0.00013904
0.000139224
0.000139012
0.000138584
0.000138016
0.000137345
0.000136585
0.000135746
0.000134835
0.000133853
0.000132802
0.000131686
0.000130504
0.000129256
0.000127856
0.000126367
0.000124843
0.000123289
0.000121706
0.000120083
0.000118417
0.000116702
0.000114918
0.000113033
0.000110988
0.0001087
0.000106076
0.000103042
9.95844e-05
9.57831e-05
9.18228e-05
8.7959e-05
8.44513e-05
8.14822e-05
7.90948e-05
7.70753e-05
7.56088e-05
0.000116556
0.000123128
0.00012589
0.000126896
0.000127078
0.000126849
0.00012639
0.000125782
0.000125064
0.000124252
0.000123359
0.000122391
0.000121353
0.000120247
0.000119076
0.000117841
0.000116526
0.000115026
0.000113517
0.000111977
0.000110412
0.000108825
0.000107208
0.000105558
0.000103863
0.000102092
0.000100197
9.80951e-05
9.56713e-05
9.27982e-05
8.93715e-05
8.53625e-05
8.08642e-05
7.61053e-05
7.14112e-05
6.71203e-05
6.3478e-05
6.05544e-05
5.81217e-05
5.65133e-05
0.000105281
0.000111764
0.000114518
0.000115529
0.000115706
0.000115458
0.00011497
0.000114323
0.000113559
0.000112699
0.000111753
0.000110732
0.00010964
0.000108481
0.000107259
0.000105974
0.000104508
0.000103014
0.000101493
9.99493e-05
9.83891e-05
9.68181e-05
9.5232e-05
9.36228e-05
9.1972e-05
9.02392e-05
8.83542e-05
8.62057e-05
8.36428e-05
8.04962e-05
7.66246e-05
7.19801e-05
6.66684e-05
6.09685e-05
5.52875e-05
5.00552e-05
4.55922e-05
4.19838e-05
3.91264e-05
3.733e-05
9.48525e-05
0.000101188
0.00010391
0.000104914
0.00010508
0.000104813
0.000104294
0.00010361
0.000102802
0.000101893
0.000100896
9.9823e-05
9.86795e-05
9.747e-05
9.61981e-05
9.47865e-05
9.32882e-05
9.17812e-05
9.02577e-05
8.87237e-05
8.71874e-05
8.56546e-05
8.41221e-05
8.25786e-05
8.09974e-05
7.93244e-05
7.74663e-05
7.52791e-05
7.25687e-05
6.91168e-05
6.47384e-05
5.93627e-05
5.31095e-05
4.63154e-05
3.94805e-05
3.31396e-05
2.76984e-05
2.31523e-05
1.99261e-05
1.79189e-05
8.52353e-05
9.1373e-05
9.40391e-05
9.50243e-05
9.51756e-05
9.48856e-05
9.43358e-05
9.36127e-05
9.27603e-05
9.18026e-05
9.07554e-05
8.963e-05
8.84346e-05
8.71742e-05
8.58094e-05
8.43043e-05
8.27995e-05
8.1287e-05
7.97728e-05
7.82651e-05
7.67728e-05
7.5301e-05
7.38459e-05
7.23917e-05
7.09023e-05
6.93079e-05
6.74893e-05
6.52646e-05
6.239e-05
5.85904e-05
5.36302e-05
4.74129e-05
4.00755e-05
3.2022e-05
2.38586e-05
1.62368e-05
9.65725e-06
4.17613e-06
4.28301e-07
-1.85114e-06
7.6392e-05
8.22905e-05
8.48798e-05
8.58356e-05
8.59653e-05
8.56491e-05
8.50658e-05
8.43021e-05
8.34037e-05
8.23956e-05
8.12956e-05
8.01161e-05
7.88665e-05
7.75377e-05
7.60234e-05
7.45153e-05
7.30015e-05
7.14938e-05
7.00035e-05
6.85405e-05
6.7113e-05
6.57248e-05
6.43694e-05
6.30255e-05
6.16467e-05
6.0145e-05
5.83722e-05
5.61031e-05
5.30366e-05
4.88328e-05
4.31984e-05
3.60102e-05
2.74284e-05
1.79372e-05
8.26343e-06
-8.14095e-07
-8.70758e-06
-1.51652e-05
-1.95006e-05
-2.21131e-05
6.8284e-05
7.39112e-05
7.64056e-05
7.73216e-05
7.74229e-05
7.70758e-05
7.64551e-05
7.56475e-05
7.46996e-05
7.36375e-05
7.24805e-05
7.12422e-05
6.99333e-05
6.84135e-05
6.68961e-05
6.53719e-05
6.38569e-05
6.2368e-05
6.09188e-05
5.95199e-05
5.8178e-05
5.6894e-05
5.56579e-05
5.44418e-05
5.31874e-05
5.17867e-05
5.00585e-05
4.77283e-05
4.44292e-05
3.97471e-05
3.33251e-05
2.50134e-05
1.50061e-05
3.88389e-06
-7.48802e-06
-1.8194e-05
-2.76946e-05
-3.50416e-05
-3.9991e-05
-4.29993e-05
6.08724e-05
6.62046e-05
6.85893e-05
6.94555e-05
6.95211e-05
6.91373e-05
6.84741e-05
6.76173e-05
6.66143e-05
6.54922e-05
6.42714e-05
6.29669e-05
6.14562e-05
5.9917e-05
5.83723e-05
5.68378e-05
5.53345e-05
5.38812e-05
5.24919e-05
5.11763e-05
4.99389e-05
4.87771e-05
4.76762e-05
4.66007e-05
4.54792e-05
4.41811e-05
4.24881e-05
4.00689e-05
3.64812e-05
3.12266e-05
2.38787e-05
1.42647e-05
2.6265e-06
-1.03357e-05
-2.35987e-05
-3.60934e-05
-4.71827e-05
-5.55357e-05
-6.11614e-05
-6.4642e-05
5.41175e-05
5.91393e-05
6.14023e-05
6.22095e-05
6.22316e-05
6.1804e-05
6.10915e-05
6.01782e-05
5.91125e-05
5.79214e-05
5.66272e-05
5.5135e-05
5.35619e-05
5.19844e-05
5.04175e-05
4.88852e-05
4.74101e-05
4.60107e-05
4.47e-05
4.34854e-05
4.23685e-05
4.13428e-05
4.03883e-05
3.94612e-05
3.84754e-05
3.72751e-05
3.55989e-05
3.30509e-05
2.91019e-05
2.31583e-05
1.4719e-05
3.59436e-06
-9.90518e-06
-2.49326e-05
-4.02854e-05
-5.4746e-05
-6.73778e-05
-7.67763e-05
-8.31342e-05
-8.71729e-05
4.79794e-05
5.2683e-05
5.48149e-05
5.55543e-05
5.55245e-05
5.50449e-05
5.42744e-05
5.32953e-05
5.21565e-05
5.08848e-05
4.94216e-05
4.78152e-05
4.61964e-05
4.4584e-05
4.30076e-05
4.1494e-05
4.00654e-05
3.87382e-05
3.7523e-05
3.64244e-05
3.54404e-05
3.45604e-05
3.37588e-05
3.29826e-05
3.21297e-05
3.10153e-05
2.93291e-05
2.66e-05
2.21994e-05
1.54267e-05
5.70149e-06
-7.17189e-06
-2.27882e-05
-4.01196e-05
-5.77612e-05
-7.45053e-05
-8.84717e-05
-9.88864e-05
-0.000106029
-0.00011072
4.24186e-05
4.68021e-05
4.87957e-05
4.94588e-05
4.93681e-05
4.8827e-05
4.7988e-05
4.69313e-05
4.57064e-05
4.42931e-05
4.26567e-05
4.09961e-05
3.93296e-05
3.76954e-05
3.61268e-05
3.46507e-05
3.32869e-05
3.20488e-05
3.09435e-05
2.99721e-05
2.91292e-05
2.84e-05
2.7753e-05
2.71254e-05
2.63971e-05
2.53503e-05
2.36182e-05
2.06434e-05
1.56833e-05
7.91722e-06
-3.31667e-06
-1.82054e-05
-3.62157e-05
-5.60987e-05
-7.6209e-05
-9.51159e-05
-0.000110489
-0.000121956
-0.000129957
-0.000135397
3.73956e-05
4.1462e-05
4.33116e-05
4.38901e-05
4.37287e-05
4.3115e-05
4.21954e-05
4.10468e-05
3.97196e-05
3.8065e-05
3.63674e-05
3.4645e-05
3.29441e-05
3.13068e-05
2.97664e-05
2.83471e-05
2.70652e-05
2.59303e-05
2.49456e-05
2.41089e-05
2.34112e-05
2.28335e-05
2.23384e-05
2.18525e-05
2.12355e-05
2.02318e-05
1.84098e-05
1.51125e-05
9.46741e-06
5.21282e-07
-1.24703e-05
-2.96651e-05
-5.0362e-05
-7.30503e-05
-9.58809e-05
-0.000116738
-0.000133511
-0.000146069
-0.000155015
-0.000161292
3.28716e-05
3.66274e-05
3.8328e-05
3.88132e-05
3.85706e-05
3.78718e-05
3.68573e-05
3.56006e-05
3.40042e-05
3.22898e-05
3.05167e-05
2.87466e-05
2.70317e-05
2.54135e-05
2.39222e-05
2.25779e-05
2.13928e-05
2.0372e-05
1.95152e-05
1.88167e-05
1.82644e-05
1.78351e-05
1.74853e-05
1.71301e-05
1.66064e-05
1.56156e-05
1.36518e-05
9.94403e-06
3.47329e-06
-6.85931e-06
-2.18782e-05
-4.1686e-05
-6.53666e-05
-9.1097e-05
-0.000116913
-0.000139446
-0.000157575
-0.000171284
-0.000181267
-0.000188444
2.88094e-05
3.22629e-05
3.38084e-05
3.41911e-05
3.38561e-05
3.30585e-05
3.19333e-05
3.0472e-05
2.87349e-05
2.69257e-05
2.50911e-05
2.32958e-05
2.15913e-05
2.00153e-05
1.85932e-05
1.734e-05
1.62633e-05
1.53641e-05
1.46389e-05
1.40787e-05
1.36684e-05
1.3381e-05
1.31666e-05
1.29274e-05
1.24751e-05
1.1462e-05
9.29775e-06
5.08236e-06
-2.36706e-06
-1.43064e-05
-3.16341e-05
-5.43662e-05
-8.13217e-05
-0.000110305
-0.000138702
-0.000163086
-0.000182652
-0.000197615
-0.000208725
-0.000216817
2.51718e-05
2.83312e-05
2.97169e-05
2.99867e-05
2.95468e-05
2.86353e-05
2.73823e-05
2.56745e-05
2.38459e-05
2.19593e-05
2.00873e-05
1.82936e-05
1.66252e-05
1.51137e-05
1.37785e-05
1.26294e-05
1.16695e-05
1.08963e-05
1.0303e-05
9.87811e-06
9.60362e-06
9.44891e-06
9.35704e-06
9.21651e-06
8.81015e-06
7.73563e-06
5.30702e-06
4.80429e-07
-8.10742e-06
-2.18785e-05
-4.17952e-05
-6.77494e-05
-9.82501e-05
-0.000130957
-0.000161461
-0.000187618
-0.00020869
-0.000225027
-0.000237313
-0.000246159
2.19221e-05
2.47962e-05
2.6017e-05
2.61627e-05
2.56042e-05
2.45631e-05
2.30313e-05
2.12414e-05
1.93249e-05
1.73873e-05
1.55074e-05
1.37437e-05
1.21361e-05
1.07087e-05
9.47485e-06
8.43934e-06
7.60123e-06
6.955e-06
6.49123e-06
6.19616e-06
6.04915e-06
6.01576e-06
6.03174e-06
5.97021e-06
5.58219e-06
4.4042e-06
1.64468e-06
-3.89858e-06
-1.37835e-05
-2.96035e-05
-5.23694e-05
-8.18065e-05
-0.000116026
-0.000151872
-0.000184788
-0.000212838
-0.000235553
-0.000253396
-0.000266687
-0.000275836
1.90255e-05
2.16224e-05
2.26726e-05
2.26825e-05
2.19907e-05
2.0778e-05
1.90462e-05
1.7147e-05
1.51669e-05
1.32111e-05
1.13549e-05
9.64868e-06
8.12322e-06
6.79556e-06
5.67312e-06
4.75662e-06
4.04189e-06
3.5209e-06
3.18211e-06
3.00966e-06
2.98042e-06
3.0559e-06
3.1639e-06
3.1606e-06
2.76207e-06
1.43778e-06
-1.71877e-06
-8.08004e-06
-1.94087e-05
-3.74696e-05
-6.33021e-05
-9.64367e-05
-0.000134753
-0.000173258
-0.000208491
-0.000238505
-0.00026303
-0.000282212
-0.000295974
-0.000305876
1.64494e-05
1.87759e-05
1.96489e-05
1.9511e-05
1.86707e-05
1.71883e-05
1.53648e-05
1.33835e-05
1.1373e-05
9.43368e-06
7.63133e-06
6.00563e-06
4.57862e-06
3.36081e-06
2.35509e-06
1.55902e-06
9.66104e-07
5.66393e-07
3.46514e-07
2.88637e-07
3.6699e-07
5.38706e-07
7.22804e-07
7.57001e-07
3.19368e-07
-1.19268e-06
-4.8079e-06
-1.20769e-05
-2.49711e-05
-4.54181e-05
-7.44559e-05
-0.000111382
-0.000153085
-0.000194504
-0.000232133
-0.000264256
-0.000290683
-0.000310212
-0.000325185
-0.00033593
1.41627e-05
1.62245e-05
1.69135e-05
1.66146e-05
1.55859e-05
1.39075e-05
1.19804e-05
9.95014e-06
7.94582e-06
6.05551e-06
4.33161e-06
2.80288e-06
1.48373e-06
3.79814e-07
-5.08954e-07
-1.18694e-06
-1.66216e-06
-1.94606e-06
-2.05372e-06
-2.00506e-06
-1.82879e-06
-1.57273e-06
-1.3275e-06
-1.27543e-06
-1.77895e-06
-3.51641e-06
-7.64293e-06
-1.58894e-05
-3.04311e-05
-5.33415e-05
-8.56262e-05
-0.000126337
-0.000171035
-0.000215185
-0.000255193
-0.000289748
-0.000316725
-0.000337401
-0.000353772
-0.000365403
1.21371e-05
1.39387e-05
1.4436e-05
1.39626e-05
1.26634e-05
1.08871e-05
8.88929e-06
6.84897e-06
4.88574e-06
3.07042e-06
1.44112e-06
1.7139e-08
-1.19249e-06
-2.18477e-06
-2.96099e-06
-3.52631e-06
-3.88966e-06
-4.06381e-06
-4.06566e-06
-3.9176e-06
-3.65181e-06
-3.3217e-06
-3.02855e-06
-2.9761e-06
-3.56909e-06
-5.56341e-06
-1.02405e-05
-1.95059e-05
-3.57225e-05
-6.10799e-05
-9.65753e-05
-0.000140305
-0.000187928
-0.00023461
-0.00027682
-0.000313539
-0.000340803
-0.000363029
-0.000380791
-0.000393439
1.03462e-05
1.18918e-05
1.21875e-05
1.15258e-05
1.00046e-05
8.12428e-06
6.09329e-06
4.08108e-06
2.1869e-06
4.6243e-07
-1.06679e-06
-2.38783e-06
-3.49398e-06
-4.38243e-06
-5.05412e-06
-5.51411e-06
-5.77198e-06
-5.842e-06
-5.74334e-06
-5.50145e-06
-5.15261e-06
-4.75669e-06
-4.42653e-06
-4.38837e-06
-5.0902e-06
-7.36476e-06
-1.26148e-05
-2.29066e-05
-4.07605e-05
-6.84216e-05
-0.000106692
-0.000153087
-0.000203227
-0.000252079
-0.000296328
-0.000334028
-0.000362209
-0.000385872
-0.000404892
-0.000418772
8.76562e-06
1.00587e-05
1.01432e-05
9.19599e-06
7.56655e-06
5.61909e-06
3.59555e-06
1.64268e-06
-1.66073e-07
-1.79657e-06
-3.2317e-06
-4.46074e-06
-5.47589e-06
-6.27236e-06
-6.84951e-06
-7.21193e-06
-7.37006e-06
-7.34019e-06
-7.14451e-06
-6.81227e-06
-6.38473e-06
-5.92895e-06
-5.57022e-06
-5.55802e-06
-6.3833e-06
-8.95243e-06
-1.47793e-05
-2.60687e-05
-4.54664e-05
-7.52933e-05
-0.000115664
-0.000164262
-0.000216349
-0.000266767
-0.000312377
-0.00035046
-0.000379655
-0.000404324
-0.000424244
-0.000439439
0.000489819
0.000489176
0.000488587
0.000488038
0.000487523
0.000487047
0.000486633
0.000486304
0.000486067
0.000485917
0.000485917
0.000486067
0.000486304
0.000486633
0.000487047
0.000487523
0.000488038
0.000488587
0.000489176
0.000489819
0.000463069
0.000462444
0.000461872
0.000461331
0.000460822
0.000460349
0.000459939
0.000459612
0.000459377
0.000459229
0.000459229
0.000459377
0.000459612
0.000459939
0.000460349
0.000460822
0.000461331
0.000461872
0.000462444
0.000463069
0.00043649
0.000435885
0.000435332
0.000434816
0.000434318
0.000433856
0.000433455
0.000433137
0.000432908
0.00043276
0.00043276
0.000432908
0.000433137
0.000433455
0.000433856
0.000434318
0.000434816
0.000435332
0.000435885
0.00043649
0.000410149
0.000409565
0.000409033
0.000408545
0.000408071
0.000407625
0.00040724
0.000406935
0.000406716
0.000406573
0.000406573
0.000406716
0.000406935
0.00040724
0.000407625
0.000408071
0.000408545
0.000409033
0.000409565
0.000410149
0.000384112
0.000383549
0.000383039
0.000382571
0.000382136
0.000381708
0.00038134
0.000381052
0.000380846
0.000380708
0.000380708
0.000380846
0.000381052
0.00038134
0.000381708
0.000382136
0.000382571
0.000383039
0.000383549
0.000384112
0.000358448
0.000357904
0.000357415
0.000356966
0.000356563
0.000356154
0.000355803
0.00035553
0.000355336
0.000355203
0.000355203
0.000355336
0.00035553
0.000355803
0.000356154
0.000356563
0.000356966
0.000357415
0.000357904
0.000358448
0.000333229
0.000332699
0.000332224
0.000331789
0.000331392
0.000331011
0.000330673
0.000330411
0.000330226
0.000330096
0.000330096
0.000330226
0.000330411
0.000330673
0.000331011
0.000331392
0.000331789
0.000332224
0.000332699
0.000333229
0.000308523
0.000308
0.000307531
0.000307101
0.000306705
0.000306328
0.000305994
0.000305737
0.000305555
0.000305425
0.000305425
0.000305555
0.000305737
0.000305994
0.000306328
0.000306705
0.000307101
0.000307531
0.000308
0.000308523
0.000284391
0.000283865
0.000283394
0.000282956
0.000282548
0.000282149
0.000281809
0.000281547
0.000281362
0.000281227
0.000281227
0.000281362
0.000281547
0.000281809
0.000282149
0.000282548
0.000282956
0.000283394
0.000283865
0.000284391
0.00026088
0.000260341
0.000259855
0.000259398
0.000258945
0.000258513
0.000258154
0.000257877
0.000257681
0.000257539
0.000257539
0.000257681
0.000257877
0.000258154
0.000258513
0.000258945
0.000259398
0.000259855
0.000260341
0.00026088
0.000238015
0.000237456
0.000236945
0.000236455
0.000235911
0.00023545
0.000235059
0.000234756
0.000234542
0.000234386
0.000234386
0.000234542
0.000234756
0.000235059
0.00023545
0.000235911
0.000236455
0.000236945
0.000237456
0.000238015
0.000215805
0.000215218
0.000214674
0.000214059
0.000213488
0.000212977
0.00021254
0.000212201
0.00021196
0.000211789
0.000211789
0.00021196
0.000212201
0.00021254
0.000212977
0.000213488
0.000214059
0.000214674
0.000215218
0.000215805
0.000194235
0.000193615
0.000192934
0.000192296
0.000191671
0.000191095
0.0001906
0.000190214
0.000189941
0.000189749
0.000189749
0.000189941
0.000190214
0.0001906
0.000191095
0.000191671
0.000192296
0.000192934
0.000193615
0.000194235
0.000173267
0.000172505
0.000171817
0.000171134
0.000170441
0.000169787
0.000169221
0.000168779
0.000168468
0.000168254
0.000168254
0.000168468
0.000168779
0.000169221
0.000169787
0.000170441
0.000171134
0.000171817
0.000172505
0.000173267
0.000152756
0.000151979
0.000151267
0.000150527
0.000149754
0.000149011
0.000148364
0.000147859
0.000147505
0.000147268
0.000147268
0.000147505
0.000147859
0.000148364
0.000149011
0.000149754
0.000150527
0.000151267
0.000151979
0.000152756
0.000132727
0.000131952
0.00013121
0.000130408
0.000129545
0.000128703
0.000127966
0.000127393
0.000126993
0.000126733
0.000126733
0.000126993
0.000127393
0.000127966
0.000128703
0.000129545
0.000130408
0.00013121
0.000131952
0.000132727
0.000113104
0.000112326
0.000111554
0.000110684
0.000109725
0.000108774
0.000107941
0.000107296
0.00010685
0.000106566
0.000106566
0.00010685
0.000107296
0.000107941
0.000108774
0.000109725
0.000110684
0.000111554
0.000112326
0.000113104
9.3776e-05
9.29899e-05
9.21855e-05
9.12443e-05
9.01807e-05
8.91147e-05
8.81806e-05
8.74608e-05
8.69685e-05
8.66643e-05
8.66643e-05
8.69685e-05
8.74608e-05
8.81806e-05
8.91147e-05
9.01807e-05
9.12443e-05
9.21855e-05
9.29899e-05
9.3776e-05
7.46094e-05
7.38147e-05
7.29751e-05
7.19555e-05
7.078e-05
6.95933e-05
6.85548e-05
6.77598e-05
6.72222e-05
6.68997e-05
6.68997e-05
6.72222e-05
6.77598e-05
6.85548e-05
6.95932e-05
7.078e-05
7.19555e-05
7.29751e-05
7.38147e-05
7.46095e-05
5.54722e-05
5.46602e-05
5.37766e-05
5.26686e-05
5.13733e-05
5.00614e-05
4.89171e-05
4.80471e-05
4.74658e-05
4.71278e-05
4.71278e-05
4.74658e-05
4.80471e-05
4.89171e-05
5.00614e-05
5.13733e-05
5.26686e-05
5.37766e-05
5.46602e-05
5.54722e-05
3.62228e-05
3.53759e-05
3.44315e-05
3.32212e-05
3.17973e-05
3.03573e-05
2.91075e-05
2.8164e-05
2.75408e-05
2.71899e-05
2.71899e-05
2.75408e-05
2.8164e-05
2.91075e-05
3.03573e-05
3.17973e-05
3.32212e-05
3.44315e-05
3.53759e-05
3.62229e-05
1.67153e-05
1.58043e-05
1.47729e-05
1.34413e-05
1.18801e-05
1.0311e-05
8.95795e-06
7.94327e-06
7.28026e-06
6.919e-06
6.919e-06
7.28026e-06
7.94326e-06
8.95794e-06
1.0311e-05
1.18801e-05
1.34413e-05
1.47729e-05
1.58043e-05
1.67153e-05
-3.19761e-06
-4.21617e-06
-5.37102e-06
-6.84686e-06
-8.55336e-06
-1.02498e-05
-1.17013e-05
-1.27836e-05
-1.34844e-05
-1.3854e-05
-1.3854e-05
-1.34844e-05
-1.27836e-05
-1.17013e-05
-1.02498e-05
-8.55336e-06
-6.84686e-06
-5.37101e-06
-4.21615e-06
-3.19759e-06
-2.36634e-05
-2.48477e-05
-2.61718e-05
-2.78166e-05
-2.96734e-05
-3.14913e-05
-3.30336e-05
-3.41785e-05
-3.49145e-05
-3.52908e-05
-3.52908e-05
-3.49145e-05
-3.41785e-05
-3.30336e-05
-3.14913e-05
-2.96734e-05
-2.78166e-05
-2.61718e-05
-2.48477e-05
-2.36633e-05
-4.48289e-05
-4.625e-05
-4.77943e-05
-4.96304e-05
-5.16364e-05
-5.35644e-05
-5.5186e-05
-5.6386e-05
-5.71538e-05
-5.75352e-05
-5.75352e-05
-5.71538e-05
-5.6386e-05
-5.5186e-05
-5.35644e-05
-5.16364e-05
-4.96303e-05
-4.77943e-05
-4.625e-05
-4.48288e-05
-6.6839e-05
-6.85747e-05
-7.03878e-05
-7.24283e-05
-7.45726e-05
-7.65922e-05
-7.82766e-05
-7.9521e-05
-8.03149e-05
-8.06995e-05
-8.06995e-05
-8.03149e-05
-7.9521e-05
-7.82766e-05
-7.65922e-05
-7.45726e-05
-7.24282e-05
-7.03878e-05
-6.85747e-05
-6.6839e-05
-8.98326e-05
-9.19566e-05
-9.40741e-05
-9.63149e-05
-9.85726e-05
-0.000100656
-0.000102381
-0.000103654
-0.000104465
-0.00010485
-0.00010485
-0.000104465
-0.000103654
-0.000102381
-0.000100656
-9.85726e-05
-9.63149e-05
-9.4074e-05
-9.19566e-05
-8.98325e-05
-0.000113933
-0.000116501
-0.000118932
-0.000121344
-0.000123672
-0.000125781
-0.000127515
-0.000128795
-0.000129611
-0.000129991
-0.000129991
-0.000129611
-0.000128795
-0.000127515
-0.000125781
-0.000123672
-0.000121344
-0.000118932
-0.000116501
-0.000113933
-0.000139237
-0.000142264
-0.000144978
-0.000147501
-0.000149838
-0.000151922
-0.000153626
-0.000154884
-0.000155686
-0.000156056
-0.000156056
-0.000155686
-0.000154884
-0.000153626
-0.000151922
-0.000149838
-0.000147501
-0.000144978
-0.000142264
-0.000139237
-0.000165792
-0.000169237
-0.000172155
-0.000174693
-0.000176957
-0.000178951
-0.000180578
-0.000181782
-0.000182548
-0.000182898
-0.000182898
-0.000182548
-0.000181782
-0.000180578
-0.000178951
-0.000176957
-0.000174693
-0.000172155
-0.000169237
-0.000165792
-0.000193574
-0.000197322
-0.000200286
-0.000202726
-0.000204838
-0.000206671
-0.000208171
-0.000209283
-0.000209988
-0.000210304
-0.000210304
-0.000209988
-0.000209283
-0.000208171
-0.000206671
-0.000204838
-0.000202726
-0.000200286
-0.000197322
-0.000193574
-0.000222413
-0.000226266
-0.000229094
-0.000231346
-0.000233239
-0.000234849
-0.00023616
-0.000237131
-0.000237739
-0.000238004
-0.000238004
-0.000237739
-0.000237131
-0.00023616
-0.000234849
-0.000233239
-0.000231345
-0.000229094
-0.000226266
-0.000222413
-0.00025191
-0.00025574
-0.000258377
-0.000260325
-0.000261886
-0.000263186
-0.000264241
-0.000265022
-0.000265505
-0.000265705
-0.000265705
-0.000265505
-0.000265022
-0.000264241
-0.000263186
-0.000261886
-0.000260325
-0.000258377
-0.00025574
-0.00025191
-0.000281895
-0.000285577
-0.000287836
-0.000289322
-0.000290432
-0.000291344
-0.000292093
-0.000292652
-0.000292994
-0.000293121
-0.000293121
-0.000292994
-0.000292652
-0.000292093
-0.000291344
-0.000290432
-0.000289322
-0.000287836
-0.000285576
-0.000281895
-0.00031215
-0.000315423
-0.000317077
-0.000317947
-0.000318519
-0.000318999
-0.000319424
-0.000319756
-0.000319956
-0.000320015
-0.000320015
-0.000319956
-0.000319756
-0.000319424
-0.000318999
-0.000318519
-0.000317946
-0.000317077
-0.000315423
-0.00031215
-0.000342289
-0.000344835
-0.000345664
-0.000345812
-0.00034582
-0.000345881
-0.000346006
-0.000346138
-0.000346218
-0.000346221
-0.000346221
-0.000346218
-0.000346138
-0.000346006
-0.000345881
-0.00034582
-0.000345812
-0.000345664
-0.000344835
-0.000342289
-0.000371825
-0.000373305
-0.000373149
-0.000372566
-0.000372073
-0.000371797
-0.000371699
-0.000371688
-0.000371686
-0.000371657
-0.000371657
-0.000371686
-0.000371688
-0.000371699
-0.000371797
-0.000372073
-0.000372566
-0.000373149
-0.000373305
-0.000371825
-0.000400162
-0.000400246
-0.000399091
-0.000397922
-0.000397107
-0.000396653
-0.000396453
-0.000396384
-0.000396354
-0.000396316
-0.000396316
-0.000396354
-0.000396384
-0.000396453
-0.000396653
-0.000397107
-0.000397922
-0.000399091
-0.000400246
-0.000400162
-0.000426441
-0.000424952
-0.000423085
-0.000421698
-0.000420865
-0.000420455
-0.000420305
-0.000420277
-0.00042028
-0.000420265
-0.000420265
-0.00042028
-0.000420277
-0.000420305
-0.000420455
-0.000420865
-0.000421698
-0.000423085
-0.000424952
-0.000426441
-0.000449134
-0.000446638
-0.000444892
-0.000443889
-0.000443419
-0.000443292
-0.00044335
-0.000443467
-0.000443562
-0.000443605
-0.000443605
-0.000443562
-0.000443467
-0.00044335
-0.000443292
-0.000443419
-0.000443889
-0.000444892
-0.000446638
-0.000449134
0.000490527
0.000491299
0.000492132
0.000493022
0.000493962
0.000494943
0.000495936
0.000496923
0.00049788
0.000498788
0.000499643
0.00050044
0.000501185
0.000501885
0.000502547
0.00050318