/*--------------------------------*- C++ -*----------------------------------*\
  =========                 |
  \\      /  F ield         | OpenFOAM: The Open Source CFD Toolbox
   \\    /   O peration     | Website:  https://openfoam.org
    \\  /    A nd           | Version:  6
     \\/     M anipulation  |
\*---------------------------------------------------------------------------*/
FoamFile
{
    version     2.0;
    format      ascii;
    class       volVectorField;
    location    "20";
    object      elec;
}
// * * * * * * * * * * * * * * * * * * * * * * * * * * * * * * * * * * * * * //

dimensions      [1 1 -3 0 0 -1 0];

internalField   nonuniform List<vector> 
8800
(
(-9.05541 -137038 -0)
(-24.8035 -137072 -0)
(-37.6686 -137134 -0)
(-49.9078 -137221 -0)
(-62.04 -137333 -0)
(-74.1667 -137469 -0)
(-86.2538 -137630 -0)
(-98.2306 -137816 -0)
(-110.03 -138025 -0)
(-121.603 -138258 -0)
(-132.908 -138514 -0)
(-143.906 -138792 -0)
(-154.556 -139092 -0)
(-164.82 -139413 -0)
(-174.656 -139755 -0)
(-184.022 -140116 -0)
(-192.874 -140495 -0)
(-201.165 -140891 -0)
(-208.845 -141304 -0)
(-215.863 -141731 -0)
(-222.163 -142172 -0)
(-227.701 -142625 -0)
(-232.459 -143088 -0)
(-236.41 -143560 -0)
(-239.494 -144040 -0)
(-241.658 -144524 -0)
(-242.848 -145012 -0)
(-243.024 -145502 -0)
(-242.16 -145992 -0)
(-240.248 -146478 -0)
(-237.309 -146960 -0)
(-233.369 -147436 -0)
(-228.467 -147903 -0)
(-222.637 -148359 -0)
(-215.888 -148802 -0)
(-208.216 -149231 -0)
(-199.589 -149644 -0)
(-189.958 -150038 -0)
(-179.304 -150412 -0)
(-167.625 -150763 -0)
(-24.6872 -132918 -0)
(-70.4385 -132949 -0)
(-110.893 -133008 -0)
(-149.096 -133095 -0)
(-186.506 -133207 -0)
(-223.545 -133344 -0)
(-260.238 -133507 -0)
(-296.486 -133694 -0)
(-332.164 -133905 -0)
(-367.149 -134140 -0)
(-401.323 -134399 -0)
(-434.571 -134680 -0)
(-466.777 -134984 -0)
(-497.821 -135308 -0)
(-527.58 -135653 -0)
(-555.924 -136018 -0)
(-582.72 -136402 -0)
(-607.829 -136803 -0)
(-631.105 -137220 -0)
(-652.392 -137653 -0)
(-671.536 -138099 -0)
(-688.402 -138558 -0)
(-702.924 -139028 -0)
(-715.017 -139506 -0)
(-724.524 -139992 -0)
(-731.293 -140484 -0)
(-735.181 -140979 -0)
(-736.073 -141477 -0)
(-733.888 -141974 -0)
(-728.593 -142470 -0)
(-720.204 -142961 -0)
(-708.769 -143446 -0)
(-694.351 -143922 -0)
(-677.004 -144388 -0)
(-656.738 -144842 -0)
(-633.535 -145281 -0)
(-607.321 -145703 -0)
(-578.008 -146107 -0)
(-545.561 -146490 -0)
(-509.997 -146849 -0)
(-39.9492 -128993 -0)
(-115.154 -129023 -0)
(-183.373 -129082 -0)
(-248.266 -129169 -0)
(-311.615 -129281 -0)
(-374.094 -129420 -0)
(-435.831 -129584 -0)
(-496.733 -129773 -0)
(-556.637 -129987 -0)
(-615.363 -130224 -0)
(-672.73 -130486 -0)
(-728.551 -130771 -0)
(-782.635 -131078 -0)
(-834.784 -131407 -0)
(-884.792 -131756 -0)
(-932.442 -132126 -0)
(-977.512 -132515 -0)
(-1019.77 -132921 -0)
(-1058.97 -133345 -0)
(-1094.86 -133784 -0)
(-1127.19 -134237 -0)
(-1155.73 -134703 -0)
(-1180.37 -135180 -0)
(-1200.97 -135666 -0)
(-1217.27 -136161 -0)
(-1229.03 -136661 -0)
(-1236.02 -137166 -0)
(-1238.05 -137674 -0)
(-1234.98 -138181 -0)
(-1226.74 -138687 -0)
(-1213.31 -139189 -0)
(-1194.72 -139686 -0)
(-1171.04 -140174 -0)
(-1142.3 -140652 -0)
(-1108.51 -141117 -0)
(-1069.62 -141568 -0)
(-1025.52 -142002 -0)
(-976.125 -142417 -0)
(-921.395 -142811 -0)
(-861.383 -143180 -0)
(-55.3468 -125261 -0)
(-160.097 -125292 -0)
(-256.105 -125351 -0)
(-347.948 -125438 -0)
(-437.664 -125552 -0)
(-526.041 -125691 -0)
(-613.257 -125857 -0)
(-699.223 -126048 -0)
(-783.747 -126265 -0)
(-866.602 -126506 -0)
(-947.548 -126771 -0)
(-1026.33 -127059 -0)
(-1102.69 -127370 -0)
(-1176.35 -127704 -0)
(-1247.02 -128059 -0)
(-1314.4 -128434 -0)
(-1378.17 -128829 -0)
(-1438.01 -129242 -0)
(-1493.57 -129673 -0)
(-1544.51 -130120 -0)
(-1590.46 -130581 -0)
(-1631.15 -131055 -0)
(-1666.4 -131541 -0)
(-1695.98 -132038 -0)
(-1719.55 -132542 -0)
(-1736.78 -133054 -0)
(-1747.36 -133570 -0)
(-1751.01 -134089 -0)
(-1747.54 -134609 -0)
(-1736.78 -135128 -0)
(-1718.7 -135643 -0)
(-1693.29 -136153 -0)
(-1660.56 -136655 -0)
(-1620.55 -137147 -0)
(-1573.21 -137627 -0)
(-1518.47 -138092 -0)
(-1456.21 -138540 -0)
(-1386.32 -138968 -0)
(-1308.79 -139374 -0)
(-1223.71 -139756 -0)
(-70.9693 -121717 -0)
(-205.621 -121748 -0)
(-329.638 -121809 -0)
(-448.659 -121897 -0)
(-565.055 -122011 -0)
(-679.707 -122153 -0)
(-792.81 -122321 -0)
(-904.26 -122515 -0)
(-1013.83 -122734 -0)
(-1121.26 -122978 -0)
(-1226.24 -123247 -0)
(-1328.45 -123540 -0)
(-1427.57 -123856 -0)
(-1523.23 -124195 -0)
(-1615.07 -124556 -0)
(-1702.7 -124938 -0)
(-1785.71 -125340 -0)
(-1863.67 -125761 -0)
(-1936.16 -126200 -0)
(-2002.71 -126656 -0)
(-2062.87 -127126 -0)
(-2116.3 -127611 -0)
(-2162.76 -128108 -0)
(-2201.92 -128616 -0)
(-2233.35 -129133 -0)
(-2256.64 -129657 -0)
(-2271.37 -130187 -0)
(-2277.18 -130720 -0)
(-2273.8 -131255 -0)
(-2260.99 -131789 -0)
(-2238.65 -132320 -0)
(-2206.71 -132846 -0)
(-2165.15 -133364 -0)
(-2113.95 -133873 -0)
(-2053.03 -134369 -0)
(-1982.28 -134850 -0)
(-1901.55 -135313 -0)
(-1810.72 -135757 -0)
(-1709.81 -136179 -0)
(-1598.98 -136575 -0)
(-86.9125 -118355 -0)
(-251.963 -118387 -0)
(-404.294 -118449 -0)
(-550.754 -118538 -0)
(-694.133 -118655 -0)
(-835.418 -118798 -0)
(-974.812 -118968 -0)
(-1112.19 -119165 -0)
(-1247.28 -119387 -0)
(-1379.77 -119636 -0)
(-1509.3 -119909 -0)
(-1635.49 -120207 -0)
(-1757.94 -120528 -0)
(-1876.2 -120874 -0)
(-1989.83 -121241 -0)
(-2098.35 -121631 -0)
(-2201.25 -122041 -0)
(-2298.02 -122471 -0)
(-2388.12 -122920 -0)
(-2470.98 -123386 -0)
(-2546.06 -123868 -0)
(-2612.96 -124365 -0)
(-2671.37 -124875 -0)
(-2720.84 -125397 -0)
(-2760.84 -125928 -0)
(-2790.84 -126468 -0)
(-2810.36 -127013 -0)
(-2818.93 -127563 -0)
(-2816.17 -128115 -0)
(-2801.78 -128666 -0)
(-2775.57 -129216 -0)
(-2737.41 -129760 -0)
(-2687.21 -130297 -0)
(-2624.9 -130824 -0)
(-2550.35 -131339 -0)
(-2463.39 -131839 -0)
(-2363.86 -132321 -0)
(-2251.61 -132783 -0)
(-2126.69 -133222 -0)
(-1989.3 -133635 -0)
(-103.235 -115169 -0)
(-299.271 -115202 -0)
(-480.279 -115264 -0)
(-654.491 -115355 -0)
(-825.185 -115474 -0)
(-993.483 -115619 -0)
(-1159.6 -115792 -0)
(-1323.38 -115992 -0)
(-1484.52 -116218 -0)
(-1642.64 -116471 -0)
(-1797.32 -116749 -0)
(-1948.13 -117052 -0)
(-2094.57 -117381 -0)
(-2236.14 -117733 -0)
(-2372.29 -118108 -0)
(-2502.46 -118506 -0)
(-2626.05 -118926 -0)
(-2742.44 -119367 -0)
(-2850.97 -119827 -0)
(-2950.99 -120305 -0)
(-3041.85 -120800 -0)
(-3123.1 -121311 -0)
(-3194.33 -121836 -0)
(-3254.95 -122374 -0)
(-3304.31 -122922 -0)
(-3341.81 -123479 -0)
(-3366.82 -124043 -0)
(-3378.79 -124612 -0)
(-3377.24 -125184 -0)
(-3361.76 -125756 -0)
(-3332.09 -126326 -0)
(-3288.01 -126891 -0)
(-3229.36 -127449 -0)
(-3156.02 -127998 -0)
(-3067.76 -128535 -0)
(-2964.39 -129056 -0)
(-2845.68 -129559 -0)
(-2711.48 -130042 -0)
(-2561.82 -130501 -0)
(-2396.99 -130933 -0)
(-119.952 -112150 -0)
(-347.606 -112184 -0)
(-557.72 -112248 -0)
(-760.061 -112340 -0)
(-958.457 -112461 -0)
(-1154.2 -112609 -0)
(-1347.52 -112785 -0)
(-1538.24 -112988 -0)
(-1726.01 -113219 -0)
(-1910.39 -113476 -0)
(-2090.92 -113760 -0)
(-2267.07 -114070 -0)
(-2438.29 -114405 -0)
(-2603.98 -114765 -0)
(-2763.52 -115149 -0)
(-2916.25 -115557 -0)
(-3061.45 -115988 -0)
(-3198.41 -116440 -0)
(-3326.37 -116913 -0)
(-3444.54 -117405 -0)
(-3552.19 -117916 -0)
(-3648.81 -118443 -0)
(-3733.88 -118985 -0)
(-3806.62 -119541 -0)
(-3866.27 -120108 -0)
(-3912.11 -120686 -0)
(-3943.41 -121271 -0)
(-3959.5 -121862 -0)
(-3959.77 -122456 -0)
(-3943.72 -123051 -0)
(-3911.01 -123645 -0)
(-3861.32 -124235 -0)
(-3794.43 -124817 -0)
(-3710.12 -125391 -0)
(-3608.1 -125952 -0)
(-3488.09 -126497 -0)
(-3349.8 -127025 -0)
(-3193.03 -127531 -0)
(-3017.84 -128013 -0)
(-2824.55 -128467 -0)
(-137.048 -109291 -0)
(-396.971 -109325 -0)
(-636.688 -109390 -0)
(-867.608 -109485 -0)
(-1094.17 -109608 -0)
(-1317.84 -109759 -0)
(-1538.92 -109938 -0)
(-1757.19 -110145 -0)
(-1972.25 -110380 -0)
(-2183.62 -110643 -0)
(-2390.77 -110933 -0)
(-2593.11 -111250 -0)
(-2790 -111593 -0)
(-2980.76 -111962 -0)
(-3164.69 -112357 -0)
(-3341.01 -112776 -0)
(-3508.91 -113218 -0)
(-3667.56 -113684 -0)
(-3816.07 -114172 -0)
(-3953.55 -114680 -0)
(-4079.18 -115207 -0)
(-4192.36 -115753 -0)
(-4292.42 -116314 -0)
(-4378.38 -116891 -0)
(-4449.36 -117481 -0)
(-4504.51 -118081 -0)
(-4542.97 -118691 -0)
(-4563.93 -119306 -0)
(-4566.7 -119926 -0)
(-4550.65 -120548 -0)
(-4515.34 -121168 -0)
(-4460.38 -121785 -0)
(-4385.46 -122395 -0)
(-4290.27 -122996 -0)
(-4174.42 -123585 -0)
(-4037.53 -124158 -0)
(-3879.22 -124713 -0)
(-3699.25 -125246 -0)
(-3497.65 -125753 -0)
(-3274.78 -126232 -0)
(-154.494 -106583 -0)
(-447.327 -106618 -0)
(-717.211 -106684 -0)
(-977.245 -106780 -0)
(-1232.51 -106906 -0)
(-1484.7 -107060 -0)
(-1734.16 -107243 -0)
(-1980.66 -107455 -0)
(-2223.77 -107695 -0)
(-2462.95 -107963 -0)
(-2697.6 -108260 -0)
(-2927.07 -108585 -0)
(-3150.65 -108937 -0)
(-3367.57 -109316 -0)
(-3577.01 -109722 -0)
(-3778.12 -110153 -0)
(-3969.95 -110610 -0)
(-4151.56 -111090 -0)
(-4321.94 -111594 -0)
(-4480.06 -112120 -0)
(-4625.02 -112667 -0)
(-4756.13 -113233 -0)
(-4872.48 -113817 -0)
(-4972.91 -114417 -0)
(-5056.39 -115032 -0)
(-5121.92 -115658 -0)
(-5168.5 -116295 -0)
(-5195.2 -116939 -0)
(-5201.18 -117587 -0)
(-5185.74 -118238 -0)
(-5148.32 -118889 -0)
(-5088.46 -119537 -0)
(-5005.75 -120178 -0)
(-4899.78 -120810 -0)
(-4770.05 -121430 -0)
(-4616.04 -122034 -0)
(-4437.28 -122619 -0)
(-4233.42 -123182 -0)
(-4004.45 -123719 -0)
(-3750.77 -124227 -0)
(-172.248 -104017 -0)
(-498.616 -104053 -0)
(-799.293 -104121 -0)
(-1089.06 -104219 -0)
(-1373.66 -104346 -0)
(-1655.04 -104504 -0)
(-1933.59 -104691 -0)
(-2209.1 -104907 -0)
(-2481.1 -105153 -0)
(-2749 -105428 -0)
(-3012.15 -105733 -0)
(-3269.82 -106066 -0)
(-3521.22 -106428 -0)
(-3765.5 -106818 -0)
(-4001.75 -107236 -0)
(-4228.98 -107681 -0)
(-4446.15 -108153 -0)
(-4652.17 -108650 -0)
(-4845.88 -109172 -0)
(-5026.15 -109718 -0)
(-5192.03 -110286 -0)
(-5342.62 -110876 -0)
(-5476.71 -111484 -0)
(-5593.01 -112111 -0)
(-5690.3 -112753 -0)
(-5767.43 -113409 -0)
(-5823.22 -114076 -0)
(-5856.6 -114751 -0)
(-5866.61 -115432 -0)
(-5852.43 -116116 -0)
(-5813.43 -116801 -0)
(-5749.08 -117482 -0)
(-5658.84 -118158 -0)
(-5542.21 -118825 -0)
(-5398.58 -119480 -0)
(-5227.25 -120119 -0)
(-5027.59 -120739 -0)
(-4799.15 -121336 -0)
(-4541.82 -121906 -0)
(-4255.99 -122445 -0)
(-190.264 -101585 -0)
(-550.765 -101621 -0)
(-882.919 -101690 -0)
(-1203.13 -101790 -0)
(-1517.79 -101921 -0)
(-1829.1 -102082 -0)
(-2137.56 -102273 -0)
(-2442.94 -102494 -0)
(-2744.77 -102746 -0)
(-3042.42 -103029 -0)
(-3335.16 -103341 -0)
(-3622.21 -103684 -0)
(-3902.7 -104056 -0)
(-4175.69 -104459 -0)
(-4440.16 -104890 -0)
(-4695.02 -105350 -0)
(-4939.09 -105839 -0)
(-5171.14 -106355 -0)
(-5389.88 -106897 -0)
(-5594.01 -107465 -0)
(-5782.54 -108057 -0)
(-5954.33 -108671 -0)
(-6107.84 -109308 -0)
(-6241.61 -109963 -0)
(-6354.21 -110636 -0)
(-6444.29 -111324 -0)
(-6510.53 -112025 -0)
(-6551.65 -112735 -0)
(-6566.6 -113453 -0)
(-6554.44 -114174 -0)
(-6514.46 -114896 -0)
(-6446.04 -115616 -0)
(-6348.57 -116330 -0)
(-6221.44 -117036 -0)
(-6063.92 -117730 -0)
(-5875.12 -118408 -0)
(-5654.18 -119067 -0)
(-5400.47 -119702 -0)
(-5113.75 -120309 -0)
(-4794.34 -120885 -0)
(-208.498 -99278.1 -0)
(-603.701 -99314.8 -0)
(-968.068 -99384.7 -0)
(-1319.5 -99486.6 -0)
(-1665.03 -99619.8 -0)
(-2007.13 -99784.3 -0)
(-2346.38 -99980 -0)
(-2682.6 -100207 -0)
(-3015.3 -100466 -0)
(-3343.8 -100755 -0)
(-3667.34 -101077 -0)
(-3985.07 -101430 -0)
(-4296.04 -101814 -0)
(-4599.22 -102229 -0)
(-4893.49 -102675 -0)
(-5177.64 -103152 -0)
(-5450.35 -103658 -0)
(-5710.25 -104194 -0)
(-5955.88 -104758 -0)
(-6185.81 -105350 -0)
(-6398.95 -105968 -0)
(-6593.87 -106611 -0)
(-6768.68 -107278 -0)
(-6921.72 -107965 -0)
(-7051.33 -108672 -0)
(-7155.94 -109396 -0)
(-7234.03 -110134 -0)
(-7284.14 -110883 -0)
(-7305.06 -111640 -0)
(-7295.77 -112403 -0)
(-7255.44 -113167 -0)
(-7183.43 -113929 -0)
(-7079.09 -114686 -0)
(-6941.72 -115436 -0)
(-6770.42 -116173 -0)
(-6564.08 -116895 -0)
(-6321.55 -117597 -0)
(-6041.9 -118275 -0)
(-5724.7 -118925 -0)
(-5370.18 -119541 -0)
(-226.907 -97087.1 -0)
(-657.348 -97124 -0)
(-1054.71 -97195 -0)
(-1438.21 -97298.8 -0)
(-1815.51 -97434.8 -0)
(-2189.32 -97603 -0)
(-2560.35 -97803.5 -0)
(-2928.45 -98036.3 -0)
(-3293.13 -98301.7 -0)
(-3653.7 -98599.7 -0)
(-4009.35 -98930.5 -0)
(-4359.16 -99294.2 -0)
(-4702.12 -99690.6 -0)
(-5037.11 -100120 -0)
(-5362.91 -100582 -0)
(-5678.16 -101076 -0)
(-5981.43 -101602 -0)
(-6271.17 -102159 -0)
(-6545.76 -102747 -0)
(-6803.7 -103365 -0)
(-7043.66 -104011 -0)
(-7263.84 -104685 -0)
(-7462.08 -105384 -0)
(-7636.44 -106107 -0)
(-7785.01 -106851 -0)
(-7905.97 -107614 -0)
(-7997.55 -108393 -0)
(-8058.07 -109185 -0)
(-8086.16 -109987 -0)
(-8080.67 -110795 -0)
(-8040.76 -111605 -0)
(-7965.76 -112414 -0)
(-7855.03 -113220 -0)
(-7707.78 -114017 -0)
(-7522.93 -114803 -0)
(-7299.08 -115573 -0)
(-7034.7 -116324 -0)
(-6728.49 -117051 -0)
(-6379.7 -117749 -0)
(-5988.44 -118411 -0)
(-245.453 -95003.3 -0)
(-711.638 -95040.5 -0)
(-1142.8 -95112.4 -0)
(-1559.3 -95218.1 -0)
(-1969.31 -95357 -0)
(-2375.83 -95529 -0)
(-2779.69 -95734.4 -0)
(-3180.8 -95973.3 -0)
(-3578.68 -96245.9 -0)
(-3972.62 -96552.4 -0)
(-4361.77 -96893.1 -0)
(-4745.18 -97268.1 -0)
(-5121.76 -97677.6 -0)
(-5490.31 -98121.6 -0)
(-5849.49 -98600.1 -0)
(-6197.83 -99112.9 -0)
(-6533.75 -99659.7 -0)
(-6855.53 -100240 -0)
(-7161.37 -100853 -0)
(-7449.74 -101499 -0)
(-7718.99 -102176 -0)
(-7966.83 -102882 -0)
(-8190.89 -103617 -0)
(-8388.93 -104378 -0)
(-8558.72 -105163 -0)
(-8698.11 -105969 -0)
(-8805.06 -106793 -0)
(-8877.65 -107632 -0)
(-8914.31 -108483 -0)
(-8913.8 -109340 -0)
(-8875.26 -110202 -0)
(-8798.05 -111064 -0)
(-8681.56 -111922 -0)
(-8524.93 -112773 -0)
(-8326.9 -113614 -0)
(-8085.69 -114439 -0)
(-7799.31 -115245 -0)
(-7465.94 -116026 -0)
(-7084.45 -116777 -0)
(-6654.7 -117492 -0)
(-264.102 -93018.2 -0)
(-766.506 -93055.6 -0)
(-1232.31 -93128.4 -0)
(-1682.75 -93235.9 -0)
(-2126.48 -93377.7 -0)
(-2566.78 -93553.7 -0)
(-3004.59 -93764.1 -0)
(-3439.9 -94009.1 -0)
(-3872.24 -94289.1 -0)
(-4300.93 -94604.5 -0)
(-4725.08 -94955.4 -0)
(-5143.7 -95342.3 -0)
(-5555.63 -95765.4 -0)
(-5959.6 -96224.8 -0)
(-6354.17 -96720.7 -0)
(-6737.74 -97253 -0)
(-7108.58 -97821.7 -0)
(-7464.81 -98426.3 -0)
(-7804.47 -99066.5 -0)
(-8125.93 -99741.6 -0)
(-8427.15 -100451 -0)
(-8705.37 -101193 -0)
(-8957.97 -101966 -0)
(-9182.35 -102768 -0)
(-9375.92 -103597 -0)
(-9536.18 -104449 -0)
(-9660.73 -105323 -0)
(-9747.36 -106213 -0)
(-9794.31 -107117 -0)
(-9800.23 -108030 -0)
(-9764.27 -108949 -0)
(-9685.86 -109869 -0)
(-9564.46 -110786 -0)
(-9399.18 -111697 -0)
(-9188.51 -112599 -0)
(-8930.26 -113485 -0)
(-8621.83 -114353 -0)
(-8260.77 -115196 -0)
(-7845.44 -116007 -0)
(-7375.46 -116781 -0)
(-282.827 -91123.4 -0)
(-821.893 -91160.9 -0)
(-1323.17 -91234.7 -0)
(-1808.53 -91343.9 -0)
(-2287.05 -91488.5 -0)
(-2762.21 -91668.4 -0)
(-3235.13 -91883.9 -0)
(-3705.88 -92135.2 -0)
(-4174.03 -92422.8 -0)
(-4638.9 -92747.1 -0)
(-5099.62 -93108.5 -0)
(-5555.14 -93507.6 -0)
(-6004.26 -93944.6 -0)
(-6445.63 -94419.9 -0)
(-6877.73 -94933.9 -0)
(-7298.82 -95486.5 -0)
(-7707.04 -96077.9 -0)
(-8100.3 -96708 -0)
(-8476.66 -97376.3 -0)
(-8834.17 -98082.8 -0)
(-9170.25 -98826.4 -0)
(-9481.88 -99605.9 -0)
(-9766.06 -100420 -0)
(-10019.8 -101266 -0)
(-10240.1 -102142 -0)
(-10424.1 -103045 -0)
(-10568.9 -103971 -0)
(-10671.9 -104918 -0)
(-10731.3 -105880 -0)
(-10745.5 -106854 -0)
(-10713.7 -107836 -0)
(-10635.4 -108820 -0)
(-10510.3 -109804 -0)
(-10337.3 -110782 -0)
(-10114.8 -111752 -0)
(-9840.04 -112708 -0)
(-9509.66 -113645 -0)
(-9120.45 -114557 -0)
(-8670.06 -115438 -0)
(-8158.01 -116279 -0)
(-301.604 -89310.8 -0)
(-877.741 -89348.4 -0)
(-1415.32 -89422.9 -0)
(-1936.59 -89533.9 -0)
(-2450.95 -89681.2 -0)
(-2962.11 -89865 -0)
(-3471.34 -90085.4 -0)
(-3978.8 -90343 -0)
(-4484.14 -90638.1 -0)
(-4986.68 -90971.4 -0)
(-5485.58 -91343.5 -0)
(-5979.77 -91754.8 -0)
(-6468.01 -92206 -0)
(-6948.87 -92697.6 -0)
(-7420.75 -93229.9 -0)
(-7881.81 -93803.4 -0)
(-8330.03 -94418.3 -0)
(-8763.2 -95074.6 -0)
(-9179.31 -95772.4 -0)
(-9576.02 -96511.5 -0)
(-9950.21 -97291.1 -0)
(-10298.6 -98110 -0)
(-10617.8 -98966.8 -0)
(-10904.4 -99859.6 -0)
(-11154.9 -100786 -0)
(-11365.8 -101743 -0)
(-11533.9 -102727 -0)
(-11656.4 -103735 -0)
(-11730.8 -104761 -0)
(-11755.6 -105802 -0)
(-11730 -106853 -0)
(-11653.7 -107909 -0)
(-11526.4 -108966 -0)
(-11347.2 -110020 -0)
(-11114 -111066 -0)
(-10823.4 -112100 -0)
(-10471.4 -113116 -0)
(-10053.6 -114108 -0)
(-9567.05 -115066 -0)
(-9010.68 -115984 -0)
(-320.418 -87572.4 -0)
(-934.002 -87610 -0)
(-1508.68 -87685.3 -0)
(-2066.84 -87797.9 -0)
(-2618.09 -87947.8 -0)
(-3166.38 -88135.3 -0)
(-3713.12 -88360.6 -0)
(-4258.59 -88624.2 -0)
(-4802.5 -88926.8 -0)
(-5344.25 -89269 -0)
(-5883 -89651.5 -0)
(-6417.67 -90075.1 -0)
(-6947.01 -90540.5 -0)
(-7469.55 -91048.3 -0)
(-7983.58 -91599.3 -0)
(-8487.19 -92193.9 -0)
(-8978.18 -92832.7 -0)
(-9454.43 -93515.9 -0)
(-9913.63 -94244.1 -0)
(-10352.9 -95016.9 -0)
(-10768.7 -95833.8 -0)
(-11157.6 -96693.9 -0)
(-11515.6 -97595.9 -0)
(-11838.9 -98537.9 -0)
(-12123.5 -99517.7 -0)
(-12365.3 -100532 -0)
(-12560.5 -101578 -0)
(-12705.8 -102652 -0)
(-12798.6 -103748 -0)
(-12837.1 -104862 -0)
(-12820.5 -105989 -0)
(-12748.6 -107125 -0)
(-12621.4 -108264 -0)
(-12437.8 -109403 -0)
(-12195.4 -110537 -0)
(-11890.2 -111659 -0)
(-11516.9 -112765 -0)
(-11070.2 -113846 -0)
(-10546.3 -114893 -0)
(-9943.02 -115898 -0)
(-339.258 -85900.4 -0)
(-990.631 -85938.1 -0)
(-1603.16 -86014 -0)
(-2199.14 -86128.1 -0)
(-2788.32 -86280.5 -0)
(-3374.85 -86471.4 -0)
(-3960.28 -86701.3 -0)
(-4545.04 -86970.8 -0)
(-5128.94 -87280.6 -0)
(-5711.43 -87631.4 -0)
(-6291.7 -88024.1 -0)
(-6868.72 -88459.7 -0)
(-7441.22 -88939.1 -0)
(-8007.67 -89463 -0)
(-8566.34 -90032.5 -0)
(-9115.2 -90648.3 -0)
(-9652.02 -91311.1 -0)
(-10174.6 -92021.8 -0)
(-10680.3 -92780.8 -0)
(-11165.7 -93588.1 -0)
(-11627.2 -94443.4 -0)
(-12060.6 -95346 -0)
(-12461.8 -96294.9 -0)
(-12826.2 -97288.5 -0)
(-13149.3 -98324.6 -0)
(-13426.4 -99400.5 -0)
(-13653.2 -100512 -0)
(-13825.8 -101657 -0)
(-13941 -102828 -0)
(-13997 -104022 -0)
(-13993 -105234 -0)
(-13928.9 -106458 -0)
(-13804.7 -107690 -0)
(-13619.4 -108924 -0)
(-13370.1 -110156 -0)
(-13051.8 -111380 -0)
(-12658.1 -112588 -0)
(-12182.1 -113771 -0)
(-11619.2 -114921 -0)
(-10965.7 -116024 -0)
(-358.114 -84287.4 -0)
(-1047.58 -84325.1 -0)
(-1698.65 -84401.6 -0)
(-2333.32 -84517 -0)
(-2961.41 -84671.6 -0)
(-3587.23 -84865.7 -0)
(-4212.52 -85099.9 -0)
(-4837.84 -85374.9 -0)
(-5463.09 -85691.4 -0)
(-6087.85 -86050.4 -0)
(-6711.34 -86453 -0)
(-7332.58 -86900.1 -0)
(-7950.31 -87392.9 -0)
(-8562.99 -87932.6 -0)
(-9168.83 -88520.2 -0)
(-9765.76 -89156.8 -0)
(-10351.7 -89843.7 -0)
(-10924.2 -90581.9 -0)
(-11480 -91371.9 -0)
(-12015.4 -92214 -0)
(-12526.6 -93108.4 -0)
(-13009.1 -94054.6 -0)
(-13458.1 -95051.9 -0)
(-13868.6 -96099 -0)
(-14235.4 -97194 -0)
(-14553.1 -98334.2 -0)
(-14816.7 -99516.3 -0)
(-15021.6 -100736 -0)
(-15164.5 -101990 -0)
(-15243 -103271 -0)
(-15256.3 -104576 -0)
(-15204.4 -105898 -0)
(-15087.4 -107233 -0)
(-14904 -108575 -0)
(-14650.8 -109919 -0)
(-14321.7 -111258 -0)
(-13908.5 -112583 -0)
(-13403.2 -113884 -0)
(-12799.2 -115150 -0)
(-12091.5 -116367 -0)
(-376.976 -82726.3 -0)
(-1104.79 -82764 -0)
(-1795.02 -82840.9 -0)
(-2469.16 -82957.5 -0)
(-3137.07 -83114 -0)
(-3803.19 -83311 -0)
(-4469.43 -83549 -0)
(-5136.5 -83828.9 -0)
(-5804.47 -84151.6 -0)
(-6472.97 -84518.2 -0)
(-7141.36 -84929.9 -0)
(-7808.69 -85387.9 -0)
(-8473.72 -85893.5 -0)
(-9134.96 -86448.2 -0)
(-9790.59 -87053.3 -0)
(-10438.7 -87710.3 -0)
(-11077 -88420.9 -0)
(-11702.8 -89186.1 -0)
(-12312.5 -90006.8 -0)
(-12902.3 -90883.7 -0)
(-13467.7 -91817.3 -0)
(-14004.1 -92807.7 -0)
(-14506.2 -93854.3 -0)
(-14968.3 -94956.4 -0)
(-15384.5 -96112.4 -0)
(-15748.8 -97320 -0)
(-16055.4 -98576.1 -0)
(-16299.1 -99877 -0)
(-16475.8 -101218 -0)
(-16583.1 -102595 -0)
(-16619.8 -104001 -0)
(-16586.1 -105433 -0)
(-16481.8 -106883 -0)
(-16305.5 -108347 -0)
(-16052.6 -109819 -0)
(-15715.5 -111289 -0)
(-15284.5 -112749 -0)
(-14749.6 -114186 -0)
(-14102.2 -115587 -0)
(-13335.2 -116933 -0)
(-395.833 -81210.2 -0)
(-1162.19 -81247.9 -0)
(-1892.09 -81325.1 -0)
(-2606.41 -81442.6 -0)
(-3314.94 -81600.7 -0)
(-4022.26 -81800.1 -0)
(-4730.47 -82041.4 -0)
(-5440.44 -82325.7 -0)
(-6152.38 -82653.9 -0)
(-6866.08 -83027.2 -0)
(-7580.98 -83447.1 -0)
(-8296.23 -83915.1 -0)
(-9010.66 -84432.6 -0)
(-9722.79 -85001.4 -0)
(-10431 -85623.1 -0)
(-11133.3 -86299.8 -0)
(-11827.4 -87033.1 -0)
(-12510.1 -87824.4 -0)
(-13177.6 -88675.1 -0)
(-13826 -89586.3 -0)
(-14450.6 -90558.8 -0)
(-15046.1 -91593.2 -0)
(-15606.9 -92689.6 -0)
(-16126.7 -93847.6 -0)
(-16599 -95066.2 -0)
(-17016.8 -96343.6 -0)
(-17373.7 -97677.3 -0)
(-17663.7 -99063.8 -0)
(-17882.2 -100499 -0)
(-18026.1 -101979 -0)
(-18094.1 -103497 -0)
(-18086.3 -105049 -0)
(-18002.3 -106630 -0)
(-17839.7 -108232 -0)
(-17592.8 -109849 -0)
(-17252.1 -111472 -0)
(-16805.4 -113087 -0)
(-16240.6 -114681 -0)
(-15546.3 -116237 -0)
(-14713.8 -117733 -0)
(-414.669 -79732.6 -0)
(-1219.7 -79770.3 -0)
(-1989.69 -79847.7 -0)
(-2744.75 -79965.7 -0)
(-3494.59 -80125.1 -0)
(-4243.92 -80326.3 -0)
(-4995 -80570.3 -0)
(-5748.91 -80858.1 -0)
(-6506.01 -81190.9 -0)
(-7266.26 -81570.1 -0)
(-8029.22 -81997.3 -0)
(-8794.17 -82474 -0)
(-9560.02 -83002.3 -0)
(-10325.4 -83583.9 -0)
(-11089 -84221.1 -0)
(-11848.7 -84916.2 -0)
(-12601.7 -85670.9 -0)
(-13344.9 -86487.1 -0)
(-14074.4 -87366.5 -0)
(-14785.9 -88310.8 -0)
(-15474.7 -89321.2 -0)
(-16134.9 -90399 -0)
(-16760.6 -91544.8 -0)
(-17344.9 -92759 -0)
(-17880.5 -94041.1 -0)
(-18359.9 -95390.2 -0)
(-18775.6 -96804.4 -0)
(-19120.9 -98281 -0)
(-19390.6 -99816.6 -0)
(-19581 -101407 -0)
(-19690.5 -103048 -0)
(-19718.7 -104734 -0)
(-19664.8 -106460 -0)
(-19525.1 -108219 -0)
(-19292 -110003 -0)
(-18953.4 -111801 -0)
(-18494.1 -113596 -0)
(-17899.1 -115373 -0)
(-17153.7 -117108 -0)
(-16247.7 -118777 -0)
(-433.462 -78287.4 -0)
(-1277.23 -78324.9 -0)
(-2087.58 -78402.3 -0)
(-2883.82 -78520.7 -0)
(-3675.53 -78680.8 -0)
(-4467.53 -78883.3 -0)
(-5262.27 -79129.2 -0)
(-6061.03 -79419.7 -0)
(-6864.37 -79756.2 -0)
(-7672.41 -80140.1 -0)
(-8484.9 -80573.2 -0)
(-9301.23 -81057.5 -0)
(-10120.5 -81594.9 -0)
(-10941.6 -82188.1 -0)
(-11763.3 -82839.4 -0)
(-12583.1 -83551.2 -0)
(-13398.3 -84325.5 -0)
(-14205.7 -85164.7 -0)
(-15001.3 -86071 -0)
(-15780.7 -87046.4 -0)
(-16538.8 -88093.1 -0)
(-17269.7 -89212.7 -0)
(-17966.9 -90406.8 -0)
(-18623 -91676.4 -0)
(-19230.2 -93022.1 -0)
(-19780.1 -94443.9 -0)
(-20264.5 -95940.9 -0)
(-20675.9 -97511.5 -0)
(-21008.2 -99153.2 -0)
(-21257.3 -100863 -0)
(-21421.1 -102637 -0)
(-21498.5 -104471 -0)
(-21487.5 -106361 -0)
(-21382.9 -108298 -0)
(-21174.1 -110273 -0)
(-20845.3 -112273 -0)
(-20378 -114279 -0)
(-19752.4 -116269 -0)
(-18950.3 -118213 -0)
(-17960.6 -120082 -0)
(-452.186 -76868.6 -0)
(-1334.66 -76906 -0)
(-2185.52 -76983.2 -0)
(-3023.22 -77101.6 -0)
(-3857.19 -77261.9 -0)
(-4692.38 -77465 -0)
(-5531.43 -77712.1 -0)
(-6375.82 -78004.3 -0)
(-7226.33 -78343.2 -0)
(-8083.29 -78730.5 -0)
(-8946.62 -79168.2 -0)
(-9815.9 -79658.4 -0)
(-10690.6 -80203.7 -0)
(-11569.9 -80806.8 -0)
(-12452 -81470.2 -0)
(-13334.7 -82196.4 -0)
(-14215.2 -82988.1 -0)
(-15090.3 -83847.9 -0)
(-15956.1 -84778.5 -0)
(-16808.1 -85782.6 -0)
(-17640.9 -86862.9 -0)
(-18448.6 -88021.9 -0)
(-19224.3 -89262 -0)
(-19960.3 -90585.5 -0)
(-20648.1 -91993.8 -0)
(-21278.7 -93488.4 -0)
(-21843.2 -95069.5 -0)
(-22333.2 -96737.1 -0)
(-22742 -98490.2 -0)
(-23064.8 -100327 -0)
(-23298.9 -102246 -0)
(-23442.2 -104244 -0)
(-23491.2 -106315 -0)
(-23437.8 -108455 -0)
(-23267.4 -110650 -0)
(-22959.2 -112885 -0)
(-22489.6 -115137 -0)
(-21833.1 -117376 -0)
(-20967.4 -119565 -0)
(-19881.1 -121668 -0)
(-470.805 -75471 -0)
(-1391.84 -75508.1 -0)
(-2283.21 -75585 -0)
(-3162.49 -75702.9 -0)
(-4038.96 -75862.9 -0)
(-4917.69 -76065.9 -0)
(-5801.52 -76313.1 -0)
(-6692.16 -76606 -0)
(-7590.62 -76946.1 -0)
(-8497.45 -77335.5 -0)
(-9412.81 -77776.2 -0)
(-10336.7 -78270.8 -0)
(-11268.9 -78822.3 -0)
(-12208.2 -79433.1 -0)
(-13152.9 -80106.2 -0)
(-14101 -80844.3 -0)
(-15049.8 -81650.5 -0)
(-15996 -82527.8 -0)
(-16936 -83479.4 -0)
(-17865.1 -84508.8 -0)
(-18778.1 -85619.2 -0)
(-19668.9 -86814.1 -0)
(-20530.5 -88097.1 -0)
(-21354.8 -89471.4 -0)
(-22133.1 -90940.1 -0)
(-22855.8 -92506 -0)
(-23513.3 -94171.4 -0)
(-24096.6 -95937.8 -0)
(-24598.3 -97806.5 -0)
(-25013.1 -99778.2 -0)
(-25337.4 -101853 -0)
(-25568 -104030 -0)
(-25698.8 -106306 -0)
(-25717.8 -108674 -0)
(-25604.8 -111123 -0)
(-25332 -113632 -0)
(-24868.2 -116172 -0)
(-24180.6 -118704 -0)
(-23242.7 -121182 -0)
(-22043.1 -123559 -0)
(-489.273 -74089.6 -0)
(-1448.61 -74126.3 -0)
(-2380.33 -74202.5 -0)
(-3301.13 -74319.6 -0)
(-4220.16 -74478.6 -0)
(-5142.6 -74680.7 -0)
(-6071.51 -74927.1 -0)
(-7008.84 -75219.5 -0)
(-7955.86 -75559.6 -0)
(-8913.36 -75949.4 -0)
(-9881.94 -76391.6 -0)
(-10861.9 -76889 -0)
(-11852.9 -77444.3 -0)
(-12853.9 -78060.5 -0)
(-13863.2 -78740.5 -0)
(-14879 -79487.5 -0)
(-15898.7 -80304.8 -0)
(-16919.3 -81195.8 -0)
(-17937.1 -82164.5 -0)
(-18947.8 -83214.7 -0)
(-19946.3 -84350.8 -0)
(-20926.6 -85577.1 -0)
(-21881.6 -86898.3 -0)
(-22803.3 -88319.1 -0)
(-23682.7 -89844.4 -0)
(-24509.9 -91478.6 -0)
(-25274.9 -93226.4 -0)
(-25968.4 -95091.8 -0)
(-26582.4 -97078.9 -0)
(-27111.2 -99191.4 -0)
(-27550.4 -101433 -0)
(-27895.1 -103805 -0)
(-28136 -106308 -0)
(-28255.3 -108937 -0)
(-28224.8 -111678 -0)
(-28007.8 -114506 -0)
(-27561.5 -117385 -0)
(-26843.4 -120265 -0)
(-25822.6 -123086 -0)
(-24488.3 -125787 -0)
(-507.537 -72719.7 -0)
(-1504.79 -72755.9 -0)
(-2476.52 -72831.2 -0)
(-3438.61 -72947 -0)
(-4400.07 -73104.4 -0)
(-5366.19 -73304.7 -0)
(-6340.29 -73549.3 -0)
(-7324.57 -73839.9 -0)
(-8320.56 -74178.5 -0)
(-9329.46 -74567.3 -0)
(-10352.3 -75009.4 -0)
(-11389.5 -75507.4 -0)
(-12440.4 -76064.3 -0)
(-13504.4 -76683.1 -0)
(-14579.9 -77366.9 -0)
(-15665.2 -78119.2 -0)
(-16758.1 -78943.5 -0)
(-17855.8 -79843.9 -0)
(-18954.9 -80824.7 -0)
(-20051.3 -81890.6 -0)
(-21140.4 -83046.7 -0)
(-22216.4 -84298.5 -0)
(-23272.5 -85652 -0)
(-24300.9 -87113.4 -0)
(-25292.6 -88689.4 -0)
(-26237.8 -90387 -0)
(-27126.4 -92213.2 -0)
(-27949.1 -94175.3 -0)
(-28697.9 -96281.2 -0)
(-29366.9 -98538.6 -0)
(-29951.1 -100956 -0)
(-30443.6 -103540 -0)
(-30830.7 -106294 -0)
(-31087 -109216 -0)
(-31173.4 -112293 -0)
(-31039.4 -115495 -0)
(-30627.3 -118776 -0)
(-29881.4 -122071 -0)
(-28764.9 -125303 -0)
(-27267.8 -128391 -0)
(-525.533 -71357.2 -0)
(-1560.16 -71392.8 -0)
(-2571.4 -71466.9 -0)
(-3574.34 -71580.9 -0)
(-4577.9 -71736 -0)
(-5587.52 -71933.7 -0)
(-6606.72 -72175.4 -0)
(-7638.01 -72463 -0)
(-8683.25 -72798.6 -0)
(-9744.2 -73184.9 -0)
(-10822 -73625 -0)
(-11916.9 -74121.4 -0)
(-13028.6 -74677.2 -0)
(-14156.4 -75295.4 -0)
(-15299.3 -75979.5 -0)
(-16455.6 -76732.9 -0)
(-17623.5 -77559.8 -0)
(-18800.5 -78464.5 -0)
(-19983.8 -79451.8 -0)
(-21169.8 -80527.2 -0)
(-22354.2 -81696.6 -0)
(-23531.8 -82966.7 -0)
(-24696.5 -84344.8 -0)
(-25840.8 -85839 -0)
(-26956.3 -87457.9 -0)
(-28033.6 -89211.2 -0)
(-29063.3 -91109 -0)
(-30036.4 -93162.6 -0)
(-30945.7 -95384.4 -0)
(-31785.8 -97787.8 -0)
(-32551.4 -100387 -0)
(-33233.4 -103196 -0)
(-33812.7 -106226 -0)
(-34253.8 -109477 -0)
(-34503.2 -112939 -0)
(-34490.9 -116579 -0)
(-34137.5 -120338 -0)
(-33370.5 -124134 -0)
(-32143.3 -127865 -0)
(-30446.4 -131423 -0)
(-543.19 -69998.4 -0)
(-1614.49 -70033.3 -0)
(-2664.55 -70105.8 -0)
(-3707.74 -70217.5 -0)
(-4752.89 -70369.7 -0)
(-5805.58 -70563.8 -0)
(-6869.6 -70801.5 -0)
(-7947.74 -71084.8 -0)
(-9042.51 -71416.1 -0)
(-10155.9 -71798.4 -0)
(-11288.8 -72234.3 -0)
(-12441.7 -72726.6 -0)
(-13614.5 -73278.3 -0)
(-14806.6 -73892.6 -0)
(-16017.4 -74573 -0)
(-17245.6 -75323.2 -0)
(-18489.7 -76147.5 -0)
(-19747.8 -77050.6 -0)
(-21017.5 -78038 -0)
(-22296.1 -79115.8 -0)
(-23579.9 -80290.6 -0)
(-24864.6 -81570.5 -0)
(-26144.8 -82964 -0)
(-27414 -84481 -0)
(-28664.8 -86132.5 -0)
(-29888.9 -87931 -0)
(-31077.9 -89890.2 -0)
(-32224.5 -92026 -0)
(-33323 -94356.4 -0)
(-34369.6 -96901.9 -0)
(-35359.7 -99685.3 -0)
(-36282.3 -102730 -0)
(-37111.8 -106056 -0)
(-37800.2 -109673 -0)
(-38274.9 -113575 -0)
(-38438.7 -117727 -0)
(-38182.3 -122059 -0)
(-37408.5 -126466 -0)
(-36054.3 -130813 -0)
(-34108.2 -134950 -0)
(-560.428 -68640.2 -0)
(-1667.53 -68674.2 -0)
(-2755.55 -68744.8 -0)
(-3838.19 -68853.6 -0)
(-4924.22 -69002.1 -0)
(-6019.38 -69191.8 -0)
(-7127.73 -69424.5 -0)
(-8252.59 -69702.2 -0)
(-9396.86 -70028 -0)
(-10562.4 -70404.3 -0)
(-11750.3 -70833.8 -0)
(-12960.9 -71319.3 -0)
(-14194.6 -71863.7 -0)
(-15451.1 -72470.4 -0)
(-16729.8 -73142.7 -0)
(-18030.1 -73884.7 -0)
(-19351 -74700.8 -0)
(-20691.1 -75596.1 -0)
(-22048.9 -76576.5 -0)
(-23422.4 -77648.5 -0)
(-24808.9 -78820 -0)
(-26205.1 -80099.6 -0)
(-27607 -81497.5 -0)
(-29009.3 -83025.3 -0)
(-30406.3 -84696.4 -0)
(-31791.3 -86526.2 -0)
(-33158.3 -88532.4 -0)
(-34502.6 -90736.2 -0)
(-35821.6 -93162.1 -0)
(-37114.7 -95839.3 -0)
(-38379.4 -98801.3 -0)
(-39603.9 -102084 -0)
(-40756 -105722 -0)
(-41773.1 -109738 -0)
(-42557.1 -114138 -0)
(-42974.6 -118887 -0)
(-42875.9 -123907 -0)
(-42124.6 -129069 -0)
(-40628.1 -134192 -0)
(-38366.1 -139061 -0)
(-577.163 -67279.8 -0)
(-1719.04 -67312.7 -0)
(-2843.96 -67381 -0)
(-3965.07 -67486.5 -0)
(-5091.08 -67630.6 -0)
(-6227.94 -67815 -0)
(-7380.03 -68041.4 -0)
(-8551.23 -68312.6 -0)
(-9744.55 -68631.2 -0)
(-10961.7 -68999.6 -0)
(-12203.8 -69420.3 -0)
(-13471.7 -69896.1 -0)
(-14765.6 -70429.9 -0)
(-16085.6 -71025 -0)
(-17431.7 -71684.7 -0)
(-18803.7 -72413.2 -0)
(-20201.1 -73215.1 -0)
(-21623.4 -74095.7 -0)
(-23069.9 -75061.3 -0)
(-24539.6 -76118.8 -0)
(-26030.9 -77276.8 -0)
(-27542.1 -78545 -0)
(-29070.5 -79934.6 -0)
(-30612.9 -81459 -0)
(-32165.6 -83133.8 -0)
(-33724.9 -84977.4 -0)
(-35287.9 -87011.7 -0)
(-36854.1 -89263.2 -0)
(-38426.1 -91764.2 -0)
(-40008.9 -94553.9 -0)
(-41604.6 -97678.7 -0)
(-43202.8 -101191 -0)
(-44765.9 -105145 -0)
(-46216.1 -109585 -0)
(-47423.4 -114535 -0)
(-48208.2 -119974 -0)
(-48364.7 -125825 -0)
(-47693.5 -131933 -0)
(-46046.6 -138057 -0)
(-43377.8 -143879 -0)