/*--------------------------------*- C++ -*----------------------------------*\
  =========                 |
  \\      /  F ield         | OpenFOAM: The Open Source CFD Toolbox
   \\    /   O peration     | Website:  https://openfoam.org
    \\  /    A nd           | Version:  6
     \\/     M anipulation  |
\*---------------------------------------------------------------------------*/
FoamFile
{
    version     2.0;
    format      ascii;
    class       volVectorField;
    location    "20";
    object      force;
}
// * * * * * * * * * * * * * * * * * * * * * * * * * * * * * * * * * * * * * //

dimensions      [0 1 -2 0 0 0 0];

internalField   nonuniform List<vector> 
8800
(
(-3.15783e-06 -0.0477883 -0)
(-8.66947e-06 -0.0479103 -0)
(-1.31788e-05 -0.0479776 -0)
(-1.74668e-05 -0.0480246 -0)
(-2.17129e-05 -0.048064 -0)
(-2.59523e-05 -0.0481029 -0)
(-3.01729e-05 -0.0481452 -0)
(-3.43504e-05 -0.0481929 -0)
(-3.84608e-05 -0.0482462 -0)
(-4.24864e-05 -0.0483051 -0)
(-4.64121e-05 -0.0483695 -0)
(-5.02237e-05 -0.048439 -0)
(-5.39072e-05 -0.0485136 -0)
(-5.74484e-05 -0.0485928 -0)
(-6.08328e-05 -0.0486766 -0)
(-6.40454e-05 -0.0487645 -0)
(-6.70709e-05 -0.0488563 -0)
(-6.98933e-05 -0.0489517 -0)
(-7.24957e-05 -0.0490502 -0)
(-7.48601e-05 -0.0491516 -0)
(-7.69679e-05 -0.0492552 -0)
(-7.88035e-05 -0.0493601 -0)
(-8.03605e-05 -0.0494652 -0)
(-8.16314e-05 -0.0495708 -0)
(-8.25968e-05 -0.0496763 -0)
(-8.32382e-05 -0.0497808 -0)
(-8.35379e-05 -0.0498832 -0)
(-8.34818e-05 -0.0499819 -0)
(-8.30613e-05 -0.0500755 -0)
(-8.22746e-05 -0.0501624 -0)
(-8.11287e-05 -0.0502414 -0)
(-7.96367e-05 -0.0503121 -0)
(-7.7814e-05 -0.0503744 -0)
(-7.56777e-05 -0.0504293 -0)
(-7.32368e-05 -0.0504788 -0)
(-7.0494e-05 -0.050524 -0)
(-6.74445e-05 -0.0505673 -0)
(-6.40744e-05 -0.050609 -0)
(-6.03782e-05 -0.0506492 -0)
(-5.63567e-05 -0.0506877 -0)
(-8.14443e-06 -0.0438502 -0)
(-2.32847e-05 -0.0439486 -0)
(-3.66985e-05 -0.0440174 -0)
(-4.93605e-05 -0.044063 -0)
(-6.17469e-05 -0.044101 -0)
(-7.39977e-05 -0.0441396 -0)
(-8.61216e-05 -0.044182 -0)
(-9.80854e-05 -0.0442294 -0)
(-0.000109846 -0.0442822 -0)
(-0.000121362 -0.0443405 -0)
(-0.000132593 -0.044404 -0)
(-0.0001435 -0.0444727 -0)
(-0.000154042 -0.0445463 -0)
(-0.000164181 -0.0446245 -0)
(-0.000173874 -0.0447071 -0)
(-0.000183078 -0.0447938 -0)
(-0.000191749 -0.0448842 -0)
(-0.000199842 -0.0449781 -0)
(-0.00020731 -0.0450752 -0)
(-0.000214102 -0.0451749 -0)
(-0.000220168 -0.0452768 -0)
(-0.000225462 -0.0453799 -0)
(-0.000229959 -0.0454823 -0)
(-0.000233638 -0.0455849 -0)
(-0.000236452 -0.0456872 -0)
(-0.000238352 -0.0457883 -0)
(-0.000239293 -0.0458872 -0)
(-0.000239237 -0.0459826 -0)
(-0.000238159 -0.0460732 -0)
(-0.000236049 -0.0461574 -0)
(-0.000232916 -0.046234 -0)
(-0.000228784 -0.046303 -0)
(-0.000223683 -0.0463641 -0)
(-0.000217646 -0.0464185 -0)
(-0.000210692 -0.0464676 -0)
(-0.000202831 -0.0465128 -0)
(-0.000194056 -0.0465564 -0)
(-0.000184346 -0.0465984 -0)
(-0.000173694 -0.0466389 -0)
(-0.000162108 -0.0466776 -0)
(-1.24316e-05 -0.0401406 -0)
(-3.59212e-05 -0.0402478 -0)
(-5.72687e-05 -0.0403133 -0)
(-7.75713e-05 -0.0403591 -0)
(-9.73728e-05 -0.0403975 -0)
(-0.000116882 -0.040436 -0)
(-0.00013614 -0.040478 -0)
(-0.000155117 -0.0405248 -0)
(-0.000173761 -0.0405769 -0)
(-0.000192013 -0.0406343 -0)
(-0.000209815 -0.0406968 -0)
(-0.000227106 -0.0407642 -0)
(-0.000243825 -0.0408364 -0)
(-0.000259907 -0.040913 -0)
(-0.000275289 -0.0409939 -0)
(-0.000289901 -0.0410786 -0)
(-0.000303673 -0.041167 -0)
(-0.000316534 -0.0412586 -0)
(-0.000328409 -0.0413531 -0)
(-0.00033922 -0.0414502 -0)
(-0.000348888 -0.0415492 -0)
(-0.00035734 -0.0416489 -0)
(-0.000364527 -0.0417467 -0)
(-0.000370425 -0.0418447 -0)
(-0.000374959 -0.0419421 -0)
(-0.000378059 -0.0420382 -0)
(-0.000379656 -0.0421321 -0)
(-0.000379694 -0.0422227 -0)
(-0.00037813 -0.0423087 -0)
(-0.000374945 -0.0423889 -0)
(-0.000370141 -0.0424622 -0)
(-0.000363743 -0.0425285 -0)
(-0.000355784 -0.0425876 -0)
(-0.000346306 -0.0426407 -0)
(-0.000335334 -0.0426893 -0)
(-0.00032288 -0.0427346 -0)
(-0.00030894 -0.0427784 -0)
(-0.000293493 -0.0428209 -0)
(-0.000276539 -0.0428619 -0)
(-0.000258096 -0.0429011 -0)
(-1.62034e-05 -0.0366716 -0)
(-4.70222e-05 -0.0367996 -0)
(-7.53248e-05 -0.0368679 -0)
(-0.000102391 -0.0369126 -0)
(-0.000128805 -0.0369498 -0)
(-0.000154798 -0.0369872 -0)
(-0.000180425 -0.0370281 -0)
(-0.000205658 -0.0370738 -0)
(-0.00023044 -0.0371248 -0)
(-0.0002547 -0.0371808 -0)
(-0.000278364 -0.0372418 -0)
(-0.000301355 -0.0373074 -0)
(-0.000323592 -0.0373776 -0)
(-0.000344991 -0.037452 -0)
(-0.000365465 -0.0375303 -0)
(-0.000384924 -0.0376122 -0)
(-0.000403274 -0.0376974 -0)
(-0.000420419 -0.0377856 -0)
(-0.00043626 -0.0378764 -0)
(-0.000450695 -0.0379695 -0)
(-0.000463618 -0.0380642 -0)
(-0.000474931 -0.0381585 -0)
(-0.000484567 -0.0382505 -0)
(-0.000492494 -0.0383423 -0)
(-0.000498617 -0.0384333 -0)
(-0.000502847 -0.0385228 -0)
(-0.000505099 -0.0386103 -0)
(-0.000505298 -0.0386947 -0)
(-0.000503389 -0.038775 -0)
(-0.000499337 -0.0388502 -0)
(-0.000493134 -0.0389191 -0)
(-0.000484802 -0.0389818 -0)
(-0.000474371 -0.0390382 -0)
(-0.000461885 -0.0390895 -0)
(-0.000447372 -0.0391369 -0)
(-0.000430845 -0.0391816 -0)
(-0.000412306 -0.0392255 -0)
(-0.000391736 -0.0392684 -0)
(-0.000369139 -0.03931 -0)
(-0.000344548 -0.0393499 -0)
(-1.95003e-05 -0.0334442 -0)
(-5.67363e-05 -0.0335937 -0)
(-9.11121e-05 -0.0336679 -0)
(-0.000124086 -0.033713 -0)
(-0.000156298 -0.0337491 -0)
(-0.000187994 -0.0337851 -0)
(-0.000219231 -0.0338246 -0)
(-0.000249981 -0.0338689 -0)
(-0.000280179 -0.0339182 -0)
(-0.000309744 -0.0339723 -0)
(-0.000338589 -0.0340311 -0)
(-0.000366623 -0.0340943 -0)
(-0.000393748 -0.0341617 -0)
(-0.000419861 -0.0342329 -0)
(-0.000444856 -0.0343078 -0)
(-0.000468622 -0.0343858 -0)
(-0.000491046 -0.0344668 -0)
(-0.000512008 -0.0345504 -0)
(-0.000531389 -0.0346362 -0)
(-0.000549063 -0.0347239 -0)
(-0.000564903 -0.0348127 -0)
(-0.000578781 -0.0349 -0)
(-0.000590624 -0.0349848 -0)
(-0.000600386 -0.035069 -0)
(-0.000607957 -0.0351522 -0)
(-0.000613234 -0.035234 -0)
(-0.000616119 -0.0353139 -0)
(-0.000616521 -0.035391 -0)
(-0.000614371 -0.0354646 -0)
(-0.000609622 -0.0355338 -0)
(-0.000602253 -0.0355975 -0)
(-0.000592281 -0.0356559 -0)
(-0.000579725 -0.0357087 -0)
(-0.000564635 -0.0357573 -0)
(-0.000547034 -0.0358028 -0)
(-0.000526939 -0.0358464 -0)
(-0.000504356 -0.0358898 -0)
(-0.000479268 -0.0359327 -0)
(-0.000451683 -0.0359745 -0)
(-0.00042165 -0.0360148 -0)
(-2.23599e-05 -0.0304491 -0)
(-6.51734e-05 -0.0306224 -0)
(-0.000104801 -0.0307043 -0)
(-0.000142875 -0.0307508 -0)
(-0.0001801 -0.0307861 -0)
(-0.000216738 -0.0308206 -0)
(-0.00025285 -0.0308583 -0)
(-0.000288401 -0.0309006 -0)
(-0.00032332 -0.0309476 -0)
(-0.000357517 -0.0309991 -0)
(-0.000390893 -0.031055 -0)
(-0.000423341 -0.031115 -0)
(-0.00045475 -0.0311787 -0)
(-0.000485 -0.0312459 -0)
(-0.000513968 -0.0313163 -0)
(-0.000541525 -0.0313895 -0)
(-0.000567536 -0.0314651 -0)
(-0.000591865 -0.0315429 -0)
(-0.000614371 -0.0316225 -0)
(-0.000634909 -0.0317036 -0)
(-0.000653331 -0.0317852 -0)
(-0.000669474 -0.0318639 -0)
(-0.000683278 -0.0319403 -0)
(-0.000694674 -0.0320158 -0)
(-0.000703541 -0.0320901 -0)
(-0.000709763 -0.032163 -0)
(-0.000713234 -0.0322344 -0)
(-0.000713851 -0.0323034 -0)
(-0.000711533 -0.0323695 -0)
(-0.000706221 -0.0324318 -0)
(-0.000697879 -0.0324895 -0)
(-0.000686521 -0.0325428 -0)
(-0.000672153 -0.0325912 -0)
(-0.000654828 -0.0326363 -0)
(-0.000634568 -0.0326793 -0)
(-0.000611386 -0.0327209 -0)
(-0.000585298 -0.0327631 -0)
(-0.000556282 -0.0328053 -0)
(-0.000524351 -0.0328468 -0)
(-0.000489562 -0.0328872 -0)
(-2.48082e-05 -0.0276759 -0)
(-7.24161e-05 -0.0278759 -0)
(-0.000116531 -0.0279669 -0)
(-0.000158951 -0.0280153 -0)
(-0.000200448 -0.02805 -0)
(-0.000241308 -0.0280829 -0)
(-0.000281591 -0.0281184 -0)
(-0.000321263 -0.0281581 -0)
(-0.000360241 -0.0282022 -0)
(-0.000398428 -0.0282504 -0)
(-0.000435713 -0.0283027 -0)
(-0.000471977 -0.0283586 -0)
(-0.000507094 -0.0284178 -0)
(-0.00054093 -0.02848 -0)
(-0.000573346 -0.028545 -0)
(-0.000604196 -0.0286123 -0)
(-0.000633327 -0.0286816 -0)
(-0.000660586 -0.0287525 -0)
(-0.000685814 -0.0288248 -0)
(-0.000708848 -0.0288981 -0)
(-0.000729517 -0.0289711 -0)
(-0.000747623 -0.0290401 -0)
(-0.000763137 -0.0291071 -0)
(-0.000775956 -0.029173 -0)
(-0.000785949 -0.0292376 -0)
(-0.000792994 -0.029301 -0)
(-0.000796981 -0.029363 -0)
(-0.000797794 -0.0294232 -0)
(-0.000795347 -0.029481 -0)
(-0.000789568 -0.0295359 -0)
(-0.000780409 -0.0295867 -0)
(-0.00076788 -0.0296341 -0)
(-0.000751976 -0.0296774 -0)
(-0.000732752 -0.0297181 -0)
(-0.00071023 -0.0297576 -0)
(-0.00068442 -0.0297965 -0)
(-0.000655342 -0.0298367 -0)
(-0.00062297 -0.0298775 -0)
(-0.000587314 -0.0299182 -0)
(-0.00054844 -0.029958 -0)
(-2.68613e-05 -0.0251142 -0)
(-7.85261e-05 -0.0253429 -0)
(-0.000126422 -0.0254439 -0)
(-0.00017249 -0.0254948 -0)
(-0.000217572 -0.0255289 -0)
(-0.000261978 -0.0255599 -0)
(-0.000305775 -0.0255929 -0)
(-0.000348923 -0.0256294 -0)
(-0.000391335 -0.02567 -0)
(-0.000432905 -0.0257143 -0)
(-0.00047351 -0.0257621 -0)
(-0.000513021 -0.0258131 -0)
(-0.000551298 -0.025867 -0)
(-0.000588195 -0.0259234 -0)
(-0.000623557 -0.0259821 -0)
(-0.000657222 -0.0260426 -0)
(-0.000689023 -0.0261047 -0)
(-0.000718789 -0.026168 -0)
(-0.000746345 -0.0262321 -0)
(-0.000771512 -0.0262966 -0)
(-0.000794095 -0.0263602 -0)
(-0.000813857 -0.0264183 -0)
(-0.000830823 -0.0264753 -0)
(-0.000844844 -0.026531 -0)
(-0.00085578 -0.0265854 -0)
(-0.000863506 -0.0266385 -0)
(-0.000867911 -0.0266907 -0)
(-0.000868872 -0.0267414 -0)
(-0.000866298 -0.0267904 -0)
(-0.000860112 -0.026837 -0)
(-0.000850249 -0.0268803 -0)
(-0.000836725 -0.0269209 -0)
(-0.00081952 -0.026958 -0)
(-0.000798698 -0.0269936 -0)
(-0.000774281 -0.0270286 -0)
(-0.000746271 -0.0270639 -0)
(-0.000714696 -0.0271014 -0)
(-0.000679517 -0.0271402 -0)
(-0.000640739 -0.0271793 -0)
(-0.000598428 -0.0272178 -0)
(-2.85318e-05 -0.0227529 -0)
(-8.35557e-05 -0.0230111 -0)
(-0.000134582 -0.0231227 -0)
(-0.00018366 -0.0231764 -0)
(-0.000231695 -0.02321 -0)
(-0.000279023 -0.0232389 -0)
(-0.000325719 -0.0232689 -0)
(-0.000371743 -0.0233019 -0)
(-0.000417002 -0.0233383 -0)
(-0.000461382 -0.023378 -0)
(-0.000504751 -0.0234207 -0)
(-0.00054697 -0.0234662 -0)
(-0.000587887 -0.0235141 -0)
(-0.000627343 -0.023564 -0)
(-0.000665171 -0.0236157 -0)
(-0.000701194 -0.0236688 -0)
(-0.000735231 -0.0237229 -0)
(-0.000767095 -0.0237778 -0)
(-0.000796597 -0.0238331 -0)
(-0.00082354 -0.0238882 -0)
(-0.000847705 -0.0239415 -0)
(-0.000868814 -0.0239882 -0)
(-0.00088697 -0.0240348 -0)
(-0.000901961 -0.02408 -0)
(-0.000913643 -0.0241238 -0)
(-0.000921887 -0.0241664 -0)
(-0.000926588 -0.0242082 -0)
(-0.000927618 -0.024249 -0)
(-0.000924883 -0.0242884 -0)
(-0.000918306 -0.0243262 -0)
(-0.000907809 -0.0243609 -0)
(-0.000893421 -0.0243937 -0)
(-0.000875108 -0.0244237 -0)
(-0.000852948 -0.0244529 -0)
(-0.000826967 -0.0244826 -0)
(-0.000797157 -0.0245134 -0)
(-0.00076355 -0.0245474 -0)
(-0.000726093 -0.0245834 -0)
(-0.000684779 -0.0246204 -0)
(-0.000639659 -0.0246569 -0)
(-2.98323e-05 -0.0205808 -0)
(-8.75546e-05 -0.0208681 -0)
(-0.000141113 -0.0209904 -0)
(-0.00019262 -0.021047 -0)
(-0.00024303 -0.02108 -0)
(-0.000292706 -0.0211067 -0)
(-0.000341735 -0.0211334 -0)
(-0.000390076 -0.0211624 -0)
(-0.000437634 -0.0211942 -0)
(-0.000484288 -0.0212288 -0)
(-0.000529899 -0.0212659 -0)
(-0.000574317 -0.0213053 -0)
(-0.000617381 -0.0213466 -0)
(-0.000658919 -0.0213895 -0)
(-0.000698754 -0.0214337 -0)
(-0.000736697 -0.0214788 -0)
(-0.000772552 -0.0215246 -0)
(-0.000806119 -0.0215707 -0)
(-0.000837195 -0.0216167 -0)
(-0.000865565 -0.021662 -0)
(-0.000890976 -0.0217044 -0)
(-0.000913135 -0.0217397 -0)
(-0.000932212 -0.0217757 -0)
(-0.000947936 -0.0218102 -0)
(-0.000960155 -0.0218433 -0)
(-0.000968738 -0.0218751 -0)
(-0.000973589 -0.0219064 -0)
(-0.000974577 -0.0219367 -0)
(-0.00097161 -0.021966 -0)
(-0.000964615 -0.0219939 -0)
(-0.000953501 -0.022019 -0)
(-0.000938326 -0.0220429 -0)
(-0.000919045 -0.0220644 -0)
(-0.00089576 -0.022086 -0)
(-0.000868503 -0.0221092 -0)
(-0.000837276 -0.022135 -0)
(-0.000802072 -0.0221644 -0)
(-0.000762836 -0.0221967 -0)
(-0.000719547 -0.0222307 -0)
(-0.000672227 -0.0222644 -0)
(-3.07779e-05 -0.0185862 -0)
(-9.05738e-05 -0.0189013 -0)
(-0.000146116 -0.019034 -0)
(-0.000199522 -0.0190934 -0)
(-0.000251781 -0.0191258 -0)
(-0.000303281 -0.01915 -0)
(-0.000354121 -0.0191732 -0)
(-0.000404263 -0.0191979 -0)
(-0.000453611 -0.0192248 -0)
(-0.000502038 -0.0192539 -0)
(-0.0005494 -0.019285 -0)
(-0.000595537 -0.0193179 -0)
(-0.00064028 -0.0193522 -0)
(-0.000683449 -0.0193877 -0)
(-0.000724855 -0.0194241 -0)
(-0.000764298 -0.019461 -0)
(-0.000801571 -0.0194982 -0)
(-0.000836461 -0.0195353 -0)
(-0.000868749 -0.0195719 -0)
(-0.000898197 -0.0196072 -0)
(-0.00092444 -0.0196365 -0)
(-0.000947454 -0.0196626 -0)
(-0.000967185 -0.0196881 -0)
(-0.0009834 -0.0197121 -0)
(-0.000995939 -0.0197345 -0)
(-0.00100467 -0.0197555 -0)
(-0.0010095 -0.019776 -0)
(-0.00101031 -0.0197954 -0)
(-0.001007 -0.0198138 -0)
(-0.000999509 -0.0198309 -0)
(-0.000987738 -0.0198451 -0)
(-0.000971789 -0.0198585 -0)
(-0.000951635 -0.0198704 -0)
(-0.000927388 -0.0198832 -0)
(-0.00089909 -0.0198984 -0)
(-0.000866776 -0.019918 -0)
(-0.000830358 -0.0199413 -0)
(-0.000789805 -0.0199685 -0)
(-0.000745066 -0.0199982 -0)
(-0.000696139 -0.020028 -0)
(-3.13864e-05 -0.0167577 -0)
(-9.26673e-05 -0.017098 -0)
(-0.000149689 -0.0172405 -0)
(-0.000204511 -0.0173026 -0)
(-0.000258141 -0.0173344 -0)
(-0.000310987 -0.0173561 -0)
(-0.000363159 -0.0173756 -0)
(-0.000414627 -0.0173958 -0)
(-0.000465292 -0.0174175 -0)
(-0.000515025 -0.0174409 -0)
(-0.000563677 -0.0174657 -0)
(-0.000611082 -0.0174919 -0)
(-0.000657064 -0.0175191 -0)
(-0.000701434 -0.017547 -0)
(-0.000743996 -0.0175754 -0)
(-0.00078454 -0.0176041 -0)
(-0.000822849 -0.0176327 -0)
(-0.000858698 -0.0176608 -0)
(-0.000891853 -0.017688 -0)
(-0.00092205 -0.0177132 -0)
(-0.000948815 -0.0177302 -0)
(-0.000972385 -0.0177468 -0)
(-0.000992511 -0.0177623 -0)
(-0.00100898 -0.017776 -0)
(-0.00102162 -0.017788 -0)
(-0.00103029 -0.0177982 -0)
(-0.00103494 -0.0178079 -0)
(-0.00103539 -0.0178161 -0)
(-0.00103158 -0.0178228 -0)
(-0.00102347 -0.0178281 -0)
(-0.00101096 -0.0178304 -0)
(-0.000994198 -0.0178319 -0)
(-0.000973212 -0.017833 -0)
(-0.000948071 -0.0178348 -0)
(-0.000918857 -0.0178394 -0)
(-0.000885646 -0.0178494 -0)
(-0.000848358 -0.0178648 -0)
(-0.000806927 -0.0178856 -0)
(-0.000761256 -0.0179098 -0)
(-0.000711306 -0.0179349 -0)
(-3.1679e-05 -0.0150842 -0)
(-9.3893e-05 -0.0154463 -0)
(-0.00015193 -0.0155975 -0)
(-0.000207728 -0.0156622 -0)
(-0.000262293 -0.0156932 -0)
(-0.000316048 -0.0157123 -0)
(-0.000369115 -0.0157281 -0)
(-0.000421468 -0.0157437 -0)
(-0.000473013 -0.0157601 -0)
(-0.000523617 -0.0157777 -0)
(-0.000573128 -0.0157962 -0)
(-0.000621378 -0.0158156 -0)
(-0.000668184 -0.0158356 -0)
(-0.00071335 -0.015856 -0)
(-0.000756674 -0.0158765 -0)
(-0.000797939 -0.015897 -0)
(-0.000836919 -0.0159171 -0)
(-0.000873379 -0.0159364 -0)
(-0.000907069 -0.0159545 -0)
(-0.000937702 -0.0159699 -0)
(-0.00096468 -0.0159753 -0)
(-0.000988529 -0.0159828 -0)
(-0.0010088 -0.0159886 -0)
(-0.00102529 -0.0159926 -0)
(-0.00103783 -0.0159946 -0)
(-0.00104624 -0.0159943 -0)
(-0.00105049 -0.0159932 -0)
(-0.00105041 -0.0159899 -0)
(-0.00104593 -0.0159845 -0)
(-0.00103705 -0.0159773 -0)
(-0.00102372 -0.0159675 -0)
(-0.00100599 -0.015955 -0)
(-0.000983996 -0.0159415 -0)
(-0.00095787 -0.0159286 -0)
(-0.000927764 -0.0159194 -0)
(-0.000893798 -0.015917 -0)
(-0.00085591 -0.0159221 -0)
(-0.000813991 -0.0159345 -0)
(-0.00076788 -0.0159519 -0)
(-0.000717481 -0.0159712 -0)
(-3.16796e-05 -0.0135548 -0)
(-9.43119e-05 -0.0139347 -0)
(-0.000152934 -0.0140934 -0)
(-0.000209307 -0.0141601 -0)
(-0.00026441 -0.0141904 -0)
(-0.000318675 -0.014207 -0)
(-0.000372233 -0.0142191 -0)
(-0.000425068 -0.0142301 -0)
(-0.000477086 -0.0142413 -0)
(-0.000528156 -0.014253 -0)
(-0.000578125 -0.0142652 -0)
(-0.000626821 -0.0142779 -0)
(-0.000674058 -0.0142908 -0)
(-0.000719636 -0.0143038 -0)
(-0.00076335 -0.0143167 -0)
(-0.000804975 -0.0143292 -0)
(-0.000844279 -0.0143411 -0)
(-0.000881018 -0.0143521 -0)
(-0.000914925 -0.0143614 -0)
(-0.000945585 -0.0143657 -0)
(-0.000972602 -0.0143621 -0)
(-0.000996467 -0.0143609 -0)
(-0.00101664 -0.0143577 -0)
(-0.00103294 -0.0143526 -0)
(-0.00104517 -0.0143452 -0)
(-0.00105309 -0.0143344 -0)
(-0.00105678 -0.014323 -0)
(-0.00105603 -0.0143091 -0)
(-0.00105075 -0.0142922 -0)
(-0.00104089 -0.0142717 -0)
(-0.00102643 -0.0142468 -0)
(-0.00100745 -0.0142174 -0)
(-0.000984167 -0.0141854 -0)
(-0.000956829 -0.0141538 -0)
(-0.000925702 -0.0141266 -0)
(-0.00089099 -0.0141079 -0)
(-0.00085267 -0.0140996 -0)
(-0.000810587 -0.0141013 -0)
(-0.00076449 -0.01411 -0)
(-0.000714202 -0.0141221 -0)
(-3.14144e-05 -0.0121591 -0)
(-9.39886e-05 -0.0125523 -0)
(-0.000152798 -0.012717 -0)
(-0.000209376 -0.0127855 -0)
(-0.000264653 -0.0128149 -0)
(-0.000319061 -0.012829 -0)
(-0.000372741 -0.0128375 -0)
(-0.000425683 -0.012844 -0)
(-0.000477798 -0.01285 -0)
(-0.000528958 -0.012856 -0)
(-0.000579007 -0.0128622 -0)
(-0.000627776 -0.0128683 -0)
(-0.000675076 -0.0128744 -0)
(-0.000720704 -0.0128803 -0)
(-0.000764453 -0.0128858 -0)
(-0.000806096 -0.0128907 -0)
(-0.000845395 -0.0128949 -0)
(-0.0008821 -0.0128979 -0)
(-0.000915921 -0.0128989 -0)
(-0.000946155 -0.0128909 -0)
(-0.0009731 -0.0128808 -0)
(-0.000996739 -0.0128717 -0)
(-0.00101656 -0.0128598 -0)
(-0.00103247 -0.0128464 -0)
(-0.00104421 -0.0128305 -0)
(-0.00105159 -0.0128115 -0)
(-0.00105457 -0.0127905 -0)
(-0.00105296 -0.0127661 -0)
(-0.00104664 -0.0127371 -0)
(-0.00103551 -0.012702 -0)
(-0.00101956 -0.0126596 -0)
(-0.000998909 -0.0126099 -0)
(-0.000973881 -0.0125552 -0)
(-0.000944901 -0.0124998 -0)
(-0.000912422 -0.0124492 -0)
(-0.00087679 -0.0124094 -0)
(-0.000838064 -0.0123835 -0)
(-0.000796044 -0.0123711 -0)
(-0.000750362 -0.0123686 -0)
(-0.000700726 -0.0123716 -0)
(-3.09116e-05 -0.0108872 -0)
(-9.29895e-05 -0.0112891 -0)
(-0.000151618 -0.0114582 -0)
(-0.000208059 -0.0115279 -0)
(-0.000263175 -0.0115565 -0)
(-0.000317389 -0.0115682 -0)
(-0.00037085 -0.0115731 -0)
(-0.000423554 -0.0115753 -0)
(-0.000475417 -0.0115764 -0)
(-0.000526313 -0.0115769 -0)
(-0.000576092 -0.0115772 -0)
(-0.000624582 -0.0115771 -0)
(-0.000671596 -0.0115767 -0)
(-0.000716931 -0.0115757 -0)
(-0.000760381 -0.0115742 -0)
(-0.000801717 -0.011572 -0)
(-0.000840697 -0.0115689 -0)
(-0.000877067 -0.0115645 -0)
(-0.000910515 -0.0115577 -0)
(-0.000940063 -0.0115388 -0)
(-0.000966624 -0.0115221 -0)
(-0.000989812 -0.0115058 -0)
(-0.00100917 -0.0114871 -0)
(-0.00102453 -0.0114664 -0)
(-0.00103565 -0.0114431 -0)
(-0.00104232 -0.0114165 -0)
(-0.00104446 -0.0113869 -0)
(-0.00104183 -0.0113524 -0)
(-0.00103422 -0.011311 -0)
(-0.00102149 -0.0112601 -0)
(-0.00100358 -0.0111979 -0)
(-0.000980673 -0.011124 -0)
(-0.000953231 -0.0110414 -0)
(-0.000921929 -0.010956 -0)
(-0.000887502 -0.0108757 -0)
(-0.000850539 -0.0108086 -0)
(-0.000811235 -0.0107596 -0)
(-0.000769369 -0.0107288 -0)
(-0.000724429 -0.0107118 -0)
(-0.000675907 -0.0107022 -0)
(-3.01999e-05 -0.00973004 -0)
(-9.13824e-05 -0.0101358 -0)
(-0.000149488 -0.0103075 -0)
(-0.000205475 -0.010378 -0)
(-0.00026012 -0.0104055 -0)
(-0.00031383 -0.010415 -0)
(-0.000366756 -0.0104166 -0)
(-0.000418902 -0.0104147 -0)
(-0.000470187 -0.010411 -0)
(-0.000520492 -0.0104064 -0)
(-0.000569668 -0.010401 -0)
(-0.000617549 -0.010395 -0)
(-0.000663949 -0.0103884 -0)
(-0.000708661 -0.0103809 -0)
(-0.000751489 -0.0103729 -0)
(-0.000792202 -0.0103639 -0)
(-0.000830557 -0.0103539 -0)
(-0.000866292 -0.0103425 -0)
(-0.000898693 -0.0103238 -0)
(-0.000927747 -0.0103005 -0)
(-0.000953691 -0.0102778 -0)
(-0.000976232 -0.0102552 -0)
(-0.000994946 -0.0102305 -0)
(-0.00100962 -0.0102038 -0)
(-0.00102002 -0.0101744 -0)
(-0.00102591 -0.0101413 -0)
(-0.0010271 -0.0101041 -0)
(-0.00102329 -0.0100601 -0)
(-0.00101415 -0.0100061 -0)
(-0.000999411 -0.00993825 -0)
(-0.000978962 -0.00985347 -0)
(-0.000953019 -0.00975114 -0)
(-0.000922232 -0.00963478 -0)
(-0.000887614 -0.00951229 -0)
(-0.000850314 -0.00939452 -0)
(-0.000811293 -0.00929252 -0)
(-0.000770983 -0.00921359 -0)
(-0.000729176 -0.00915879 -0)
(-0.00068518 -0.00912284 -0)
(-0.000637729 -0.00908975 -0)
(-2.93088e-05 -0.00867892 -0)
(-8.92361e-05 -0.00908367 -0)
(-0.000146501 -0.00925624 -0)
(-0.000201739 -0.00932695 -0)
(-0.000255626 -0.00935348 -0)
(-0.000308545 -0.00936069 -0)
(-0.000360645 -0.00935916 -0)
(-0.000411933 -0.00935339 -0)
(-0.000462338 -0.00934528 -0)
(-0.000511743 -0.00933566 -0)
(-0.000560004 -0.00932494 -0)
(-0.000606961 -0.00931333 -0)
(-0.000652432 -0.00930088 -0)
(-0.000696219 -0.00928753 -0)
(-0.000738122 -0.00927333 -0)
(-0.000777915 -0.00925817 -0)
(-0.000815356 -0.00924181 -0)
(-0.000850183 -0.00922389 -0)
(-0.000881299 -0.00919504 -0)
(-0.000909565 -0.00916702 -0)
(-0.000934688 -0.00913919 -0)
(-0.000956409 -0.00911127 -0)
(-0.000974343 -0.0090817 -0)
(-0.000988249 -0.00905014 -0)
(-0.000997876 -0.00901598 -0)
(-0.00100293 -0.00897787 -0)
(-0.00100311 -0.0089342 -0)
(-0.000997986 -0.00888147 -0)
(-0.000987053 -0.00881482 -0)
(-0.000969847 -0.00872874 -0)
(-0.000946134 -0.00861863 -0)
(-0.000916152 -0.00848317 -0)
(-0.000880779 -0.00832649 -0)
(-0.000841476 -0.00815874 -0)
(-0.000799967 -0.00799437 -0)
(-0.000757767 -0.00784833 -0)
(-0.000715686 -0.00773115 -0)
(-0.000673593 -0.00764523 -0)
(-0.000630597 -0.0075844 -0)
(-0.000585184 -0.00753239 -0)
(-2.82671e-05 -0.00772558 -0)
(-8.66198e-05 -0.008125 -0)
(-0.00014275 -0.0082967 -0)
(-0.000196966 -0.00836698 -0)
(-0.000249829 -0.00839234 -0)
(-0.00030169 -0.00839745 -0)
(-0.000352692 -0.00839297 -0)
(-0.000402848 -0.00838354 -0)
(-0.000452089 -0.00837122 -0)
(-0.000500304 -0.00835695 -0)
(-0.000547358 -0.00834124 -0)
(-0.000593094 -0.00832436 -0)
(-0.000637338 -0.00830644 -0)
(-0.000679899 -0.00828747 -0)
(-0.00072058 -0.00826754 -0)
(-0.00075916 -0.00824654 -0)
(-0.000795399 -0.00822427 -0)
(-0.000828517 -0.00819505 -0)
(-0.000858637 -0.00816266 -0)
(-0.000885869 -0.00813038 -0)
(-0.000909982 -0.00809818 -0)
(-0.000930739 -0.00806598 -0)
(-0.000947795 -0.00803264 -0)
(-0.000960887 -0.00799766 -0)
(-0.000969727 -0.00796017 -0)
(-0.000973946 -0.00791839 -0)
(-0.000973098 -0.00786956 -0)
(-0.000966551 -0.00780886 -0)
(-0.000953539 -0.00772955 -0)
(-0.000933318 -0.00762396 -0)
(-0.000905452 -0.00748553 -0)
(-0.000870162 -0.00731183 -0)
(-0.000828592 -0.00710753 -0)
(-0.000782777 -0.00688533 -0)
(-0.000735227 -0.00666393 -0)
(-0.000688242 -0.00646317 -0)
(-0.000643198 -0.00629769 -0)
(-0.000600133 -0.00617178 -0)
(-0.000557132 -0.00606953 -0)
(-0.00051527 -0.00600611 -0)
(-2.71025e-05 -0.00686238 -0)
(-8.36016e-05 -0.00725251 -0)
(-0.000138329 -0.00742171 -0)
(-0.000191269 -0.00749096 -0)
(-0.000242862 -0.00751499 -0)
(-0.000293417 -0.00751803 -0)
(-0.000343071 -0.00751075 -0)
(-0.000391835 -0.00749788 -0)
(-0.000439647 -0.00748159 -0)
(-0.000486401 -0.00746293 -0)
(-0.000531968 -0.0074425 -0)
(-0.000576198 -0.00742064 -0)
(-0.000618928 -0.00739756 -0)
(-0.000659971 -0.00737331 -0)
(-0.000699139 -0.00734797 -0)
(-0.000736218 -0.00732149 -0)
(-0.000770877 -0.00729273 -0)
(-0.000802154 -0.00725487 -0)
(-0.000830982 -0.00721879 -0)
(-0.000856963 -0.00718282 -0)
(-0.0008799 -0.00714712 -0)
(-0.000899582 -0.00711171 -0)
(-0.000915701 -0.00707583 -0)
(-0.000927975 -0.00703881 -0)
(-0.000936067 -0.00699949 -0)
(-0.000939503 -0.00695545 -0)
(-0.00093764 -0.00690273 -0)
(-0.000929567 -0.00683483 -0)
(-0.000914156 -0.00674278 -0)
(-0.000890265 -0.00661624 -0)
(-0.000857146 -0.00644615 -0)
(-0.000814946 -0.00622861 -0)
(-0.000765119 -0.00596865 -0)
(-0.000710424 -0.00568177 -0)
(-0.000654404 -0.00539163 -0)
(-0.000600441 -0.00512394 -0)
(-0.000550726 -0.00489844 -0)
(-0.000505607 -0.00472196 -0)
(-0.000462869 -0.00457806 -0)
(-0.00042475 -0.00449411 -0)
(-2.58413e-05 -0.00608214 -0)
(-8.02476e-05 -0.00645956 -0)
(-0.000133329 -0.00662477 -0)
(-0.000184761 -0.00669237 -0)
(-0.000234855 -0.00671488 -0)
(-0.000283877 -0.00671587 -0)
(-0.000331948 -0.0067059 -0)
(-0.00037908 -0.00668975 -0)
(-0.000425213 -0.00666969 -0)
(-0.000470248 -0.00664686 -0)
(-0.000514061 -0.00662193 -0)
(-0.000556512 -0.00659535 -0)
(-0.000597445 -0.00656736 -0)
(-0.000636686 -0.00653807 -0)
(-0.00067405 -0.0065076 -0)
(-0.000709335 -0.0064759 -0)
(-0.000741492 -0.0064355 -0)
(-0.000771309 -0.0063956 -0)
(-0.000798588 -0.00635616 -0)
(-0.000823122 -0.00631716 -0)
(-0.000844746 -0.00627885 -0)
(-0.000863275 -0.00624139 -0)
(-0.000878441 -0.00620424 -0)
(-0.00088994 -0.00616659 -0)
(-0.000897366 -0.00612688 -0)
(-0.000900109 -0.00608197 -0)
(-0.000897269 -0.00602651 -0)
(-0.00088756 -0.00595206 -0)
(-0.000869362 -0.00584695 -0)
(-0.000840988 -0.0056977 -0)
(-0.000801237 -0.00549217 -0)
(-0.000750112 -0.00522451 -0)
(-0.000689412 -0.00489997 -0)
(-0.000622808 -0.00453713 -0)
(-0.00055518 -0.00416528 -0)
(-0.000491347 -0.00381702 -0)
(-0.000434627 -0.00351809 -0)
(-0.000385686 -0.00327709 -0)
(-0.00034324 -0.00308801 -0)
(-0.000309375 -0.00297737 -0)
(-2.4508e-05 -0.0053782 -0)
(-7.66216e-05 -0.00574004 -0)
(-0.000127841 -0.00589994 -0)
(-0.000177552 -0.00596529 -0)
(-0.000225939 -0.00598606 -0)
(-0.000273217 -0.00598497 -0)
(-0.00031949 -0.00597237 -0)
(-0.000364765 -0.00595305 -0)
(-0.000408985 -0.00592937 -0)
(-0.000452055 -0.00590252 -0)
(-0.000493857 -0.00587328 -0)
(-0.000534261 -0.00584213 -0)
(-0.00057312 -0.00580941 -0)
(-0.00061027 -0.00577526 -0)
(-0.000645535 -0.0057398 -0)
(-0.000678167 -0.00569826 -0)
(-0.000708265 -0.00565362 -0)
(-0.000736188 -0.00561042 -0)
(-0.000761685 -0.00556807 -0)
(-0.000784603 -0.00552676 -0)
(-0.000804809 -0.00548685 -0)
(-0.000822151 -0.00544853 -0)
(-0.000836389 -0.0054114 -0)
(-0.000847198 -0.00537448 -0)
(-0.000854082 -0.00533575 -0)
(-0.000856247 -0.00529119 -0)
(-0.000852469 -0.00523395 -0)
(-0.000840974 -0.00515329 -0)
(-0.000819486 -0.00503445 -0)
(-0.000785587 -0.00486019 -0)
(-0.000737451 -0.00461472 -0)
(-0.000674843 -0.00428977 -0)
(-0.00059996 -0.00389069 -0)
(-0.00051761 -0.00343945 -0)
(-0.000434382 -0.0029717 -0)
(-0.000356962 -0.00252782 -0)
(-0.000290168 -0.00214049 -0)
(-0.000234055 -0.00181198 -0)
(-0.000192599 -0.00157861 -0)
(-0.000163778 -0.00143613 -0)
(-2.31247e-05 -0.00474433 -0)
(-7.27845e-05 -0.00508832 -0)
(-0.000121954 -0.00524177 -0)
(-0.000169755 -0.00530433 -0)
(-0.000216245 -0.0053231 -0)
(-0.000261587 -0.00531984 -0)
(-0.000305862 -0.00530462 -0)
(-0.000349071 -0.0052822 -0)
(-0.000391156 -0.00525497 -0)
(-0.000432024 -0.0052242 -0)
(-0.000471566 -0.00519073 -0)
(-0.000509658 -0.00515511 -0)
(-0.000546164 -0.00511773 -0)
(-0.000580929 -0.00507877 -0)
(-0.000613484 -0.00503582 -0)
(-0.000643308 -0.00498659 -0)
(-0.000671216 -0.0049392 -0)
(-0.000696988 -0.00489307 -0)
(-0.000720504 -0.00484843 -0)
(-0.000741668 -0.00480567 -0)
(-0.000760391 -0.00476521 -0)
(-0.000776551 -0.00472725 -0)
(-0.000789929 -0.0046914 -0)
(-0.000800165 -0.00465647 -0)
(-0.000806651 -0.00461989 -0)
(-0.000808362 -0.00457668 -0)
(-0.00080366 -0.00451828 -0)
(-0.000790141 -0.00443137 -0)
(-0.000764679 -0.00429756 -0)
(-0.000723889 -0.00409525 -0)
(-0.000665108 -0.00380436 -0)
(-0.000587749 -0.00341377 -0)
(-0.000494483 -0.00292888 -0)
(-0.000391544 -0.00237547 -0)
(-0.00028769 -0.00179633 -0)
(-0.000191993 -0.00124053 -0)
(-0.000111236 -0.000748533 -0)
(-4.64858e-05 -0.000328255 -0)
(-4.56375e-06 -3.41222e-05 -0)
(1.86685e-05 0.000149376 0)
(-2.17117e-05 -0.00417473 -0)
(-6.87937e-05 -0.0044992 -0)
(-0.000115754 -0.00464527 -0)
(-0.000161478 -0.00470453 -0)
(-0.000205904 -0.00472103 -0)
(-0.000249135 -0.00471547 -0)
(-0.000291229 -0.00469759 -0)
(-0.000332176 -0.00467204 -0)
(-0.000371916 -0.00464128 -0)
(-0.000410355 -0.0046066 -0)
(-0.000447389 -0.0045689 -0)
(-0.000482902 -0.00452878 -0)
(-0.000516768 -0.0044867 -0)
(-0.000548738 -0.00444201 -0)
(-0.000577807 -0.00438847 -0)
(-0.000605145 -0.00433691 -0)
(-0.000630529 -0.00428657 -0)
(-0.000653924 -0.00423804 -0)
(-0.000675295 -0.00419189 -0)
(-0.00069461 -0.00414864 -0)
(-0.000711824 -0.00410872 -0)
(-0.000726844 -0.00407228 -0)
(-0.000739459 -0.00403885 -0)
(-0.000749261 -0.00400698 -0)
(-0.000755499 -0.00397349 -0)
(-0.000756856 -0.00393231 -0)
(-0.00075118 -0.00387298 -0)
(-0.00073526 -0.00377921 -0)
(-0.000704874 -0.00362847 -0)
(-0.000655376 -0.0033941 -0)
(-0.000583002 -0.00305107 -0)
(-0.000486686 -0.00258498 -0)
(-0.000369687 -0.00200139 -0)
(-0.000240044 -0.00133047 -0)
(-0.000109265 -0.000623032 -0)
(1.05756e-05 6.23826e-05 0)
(0.000110377 0.000677965 0)
(0.000186047 0.00119921 0)
(0.000229272 0.00156524 0)
(0.000246255 0.00180023 0)
(-2.02869e-05 -0.003664 -0)
(-6.4703e-05 -0.00396784 -0)
(-0.000109324 -0.00410581 -0)
(-0.000152832 -0.00416131 -0)
(-0.000195045 -0.00417525 -0)
(-0.00023601 -0.00416723 -0)
(-0.000275756 -0.00414656 -0)
(-0.000314258 -0.00411783 -0)
(-0.00035145 -0.00408345 -0)
(-0.000387236 -0.00404477 -0)
(-0.000421515 -0.00400273 -0)
(-0.000454174 -0.003958 -0)
(-0.000485098 -0.00391104 -0)
(-0.000513061 -0.00385385 -0)
(-0.000539355 -0.00379824 -0)
(-0.000563798 -0.00374359 -0)
(-0.000586412 -0.00369072 -0)
(-0.000607251 -0.00364054 -0)
(-0.00062636 -0.00359379 -0)
(-0.000643773 -0.00355106 -0)
(-0.000659488 -0.00351273 -0)
(-0.000673435 -0.00347887 -0)
(-0.000685401 -0.00344884 -0)
(-0.000694908 -0.00342086 -0)
(-0.00070103 -0.00339109 -0)
(-0.000702086 -0.00335225 -0)
(-0.000695277 -0.00329174 -0)
(-0.000676371 -0.0031899 -0)
(-0.000639739 -0.0030194 -0)
(-0.000579106 -0.00274778 -0)
(-0.00048928 -0.00234434 -0)
(-0.000368575 -0.00179108 -0)
(-0.000221003 -0.00109394 -0)
(-5.69218e-05 -0.000288291 -0)
(0.000108672 0.000565955 0)
(0.000259945 0.00140006 0)
(0.000386813 0.00216924 0)
(0.000474404 0.00279248 0)
(0.000519426 0.00324021 0)
(0.000529331 0.00353904 0)
(-1.88661e-05 -0.00320711 -0)
(-6.05623e-05 -0.00348974 -0)
(-0.000102744 -0.00361907 -0)
(-0.00014392 -0.00367041 -0)
(-0.000183795 -0.00368152 -0)
(-0.000222357 -0.00367082 -0)
(-0.000259602 -0.0036472 -0)
(-0.000295487 -0.0036151 -0)
(-0.000329936 -0.00357696 -0)
(-0.000362846 -0.00353409 -0)