/*--------------------------------*- C++ -*----------------------------------*\
  =========                 |
  \\      /  F ield         | OpenFOAM: The Open Source CFD Toolbox
   \\    /   O peration     | Website:  https://openfoam.org
    \\  /    A nd           | Version:  6
     \\/     M anipulation  |
\*---------------------------------------------------------------------------*/
FoamFile
{
    version     2.0;
    format      ascii;
    class       volScalarField;
    location    "20";
    object      neg;
}
// * * * * * * * * * * * * * * * * * * * * * * * * * * * * * * * * * * * * * //

dimensions      [0 -3 1 0 0 1 0];

internalField   nonuniform List<scalar> 
8800
(
2.21984e-05
2.22588e-05
2.22607e-05
2.22055e-05
2.21606e-05
2.21306e-05
2.2107e-05
2.20799e-05
2.20495e-05
2.20157e-05
2.19787e-05
2.19386e-05
2.18956e-05
2.18497e-05
2.18012e-05
2.17502e-05
2.16969e-05
2.16415e-05
2.15841e-05
2.1525e-05
2.14644e-05
2.14027e-05
2.13443e-05
2.12866e-05
2.12291e-05
2.11718e-05
2.11146e-05
2.10572e-05
2.09991e-05
2.09401e-05
2.08799e-05
2.08184e-05
2.07553e-05
2.06929e-05
2.06314e-05
2.05718e-05
2.05165e-05
2.04634e-05
2.04132e-05
2.03665e-05
4.39505e-05
4.43353e-05
4.43291e-05
4.42622e-05
4.4202e-05
4.41471e-05
4.40923e-05
4.40342e-05
4.39711e-05
4.39025e-05
4.38281e-05
4.3748e-05
4.36625e-05
4.35717e-05
4.3476e-05
4.33758e-05
4.32715e-05
4.31634e-05
4.3052e-05
4.29377e-05
4.2821e-05
4.27029e-05
4.25981e-05
4.24966e-05
4.23968e-05
4.22982e-05
4.21998e-05
4.20999e-05
4.19967e-05
4.18885e-05
4.17739e-05
4.16524e-05
4.15242e-05
4.13929e-05
4.12608e-05
4.113e-05
4.10057e-05
4.08874e-05
4.07761e-05
4.06733e-05
6.56623e-05
6.61232e-05
6.61514e-05
6.60693e-05
6.59818e-05
6.58988e-05
6.58157e-05
6.5727e-05
6.56312e-05
6.55279e-05
6.54169e-05
6.52983e-05
6.51726e-05
6.50401e-05
6.49015e-05
6.47574e-05
6.46084e-05
6.44552e-05
6.42985e-05
6.4139e-05
6.39775e-05
6.38188e-05
6.36873e-05
6.35609e-05
6.34387e-05
6.3319e-05
6.31989e-05
6.30745e-05
6.29415e-05
6.27956e-05
6.26339e-05
6.2455e-05
6.22596e-05
6.20531e-05
6.18404e-05
6.16269e-05
6.14209e-05
6.1224e-05
6.10389e-05
6.08687e-05
8.7173e-05
8.75176e-05
8.75371e-05
8.74557e-05
8.73585e-05
8.72578e-05
8.71516e-05
8.70359e-05
8.69103e-05
8.67752e-05
8.6631e-05
8.64783e-05
8.63176e-05
8.615e-05
8.59762e-05
8.57973e-05
8.56143e-05
8.54282e-05
8.52399e-05
8.50503e-05
8.48613e-05
8.46858e-05
8.45466e-05
8.44166e-05
8.42939e-05
8.41747e-05
8.40534e-05
8.3923e-05
8.37758e-05
8.36045e-05
8.34036e-05
8.31708e-05
8.29072e-05
8.26204e-05
8.23189e-05
8.20122e-05
8.17127e-05
8.14252e-05
8.11545e-05
8.09046e-05
0.000108279
0.000108445
0.00010842
0.00010833
0.000108227
0.000108113
0.000107989
0.000107851
0.000107701
0.00010754
0.000107369
0.000107189
0.000107002
0.000106809
0.000106611
0.00010641
0.000106207
0.000106003
0.0001058
0.000105599
0.000105403
0.000105234
0.000105109
0.000104998
0.000104897
0.0001048
0.000104697
0.000104579
0.000104433
0.000104248
0.000104016
0.000103734
0.000103402
0.000103032
0.000102635
0.000102226
0.000101822
0.000101433
0.000101065
0.000100724
0.000128873
0.00012881
0.000128713
0.000128604
0.000128492
0.00012837
0.000128233
0.000128079
0.000127911
0.000127732
0.000127543
0.000127346
0.000127143
0.000126937
0.000126728
0.00012652
0.000126313
0.000126109
0.00012591
0.000125717
0.000125536
0.0001254
0.000125311
0.000125239
0.000125181
0.000125125
0.000125061
0.000124972
0.000124842
0.000124655
0.000124401
0.000124073
0.000123674
0.000123217
0.000122718
0.000122199
0.000121681
0.000121179
0.000120703
0.00012026
0.000148881
0.00014853
0.000148335
0.000148199
0.000148078
0.000147949
0.000147805
0.000147643
0.000147467
0.000147279
0.000147082
0.00014688
0.000146675
0.000146469
0.000146265
0.000146065
0.000145871
0.000145685
0.000145508
0.000145343
0.0001452
0.000145121
0.000145087
0.000145075
0.000145078
0.000145084
0.000145074
0.00014503
0.00014493
0.000144754
0.000144485
0.000144117
0.000143651
0.000143104
0.000142497
0.000141858
0.000141216
0.000140591
0.000139995
0.000139441
0.000168237
0.000167541
0.000167227
0.000167053
0.000166923
0.000166792
0.000166648
0.000166486
0.000166311
0.000166125
0.000165933
0.000165739
0.000165544
0.000165353
0.000165169
0.000164993
0.000164829
0.000164677
0.000164541
0.000164423
0.000164338
0.000164337
0.000164376
0.000164442
0.000164524
0.000164606
0.000164668
0.000164684
0.000164627
0.000164471
0.000164196
0.000163792
0.000163261
0.00016262
0.000161899
0.00016113
0.000160353
0.000159592
0.000158867
0.000158191
0.000186884
0.000185797
0.000185343
0.000185127
0.000184987
0.000184859
0.000184721
0.000184568
0.000184404
0.000184232
0.000184056
0.000183882
0.000183711
0.000183549
0.000183398
0.000183262
0.000183142
0.00018304
0.00018296
0.000182906
0.000182896
0.000182995
0.000183122
0.000183279
0.000183454
0.000183627
0.000183774
0.000183863
0.000183863
0.000183739
0.000183467
0.000183032
0.000182435
0.000181698
0.000180854
0.000179945
0.00017902
0.000178111
0.000177241
0.000176432
0.000204781
0.000203267
0.000202659
0.000202394
0.000202245
0.000202124
0.000201999
0.000201864
0.00020172
0.000201572
0.000201424
0.000201281
0.000201148
0.000201026
0.000200922
0.000200837
0.000200774
0.000200736
0.000200726
0.000200749
0.000200831
0.000201042
0.000201269
0.000201529
0.000201808
0.000202084
0.000202328
0.000202504
0.000202571
0.000202491
0.000202231
0.000201771
0.000201111
0.000200273
0.000199298
0.000198232
0.000197145
0.000196076
0.000195052
0.0001941
0.000221895
0.000219936
0.000219163
0.000218845
0.000218689
0.000218577
0.000218472
0.000218362
0.000218247
0.000218132
0.000218022
0.000217921
0.000217833
0.000217764
0.000217716
0.000217693
0.000217698
0.000217734
0.000217802
0.000217915
0.000218128
0.000218433
0.000218767
0.000219138
0.00021953
0.000219918
0.00022027
0.000220543
0.000220691
0.000220666
0.000220428
0.00021995
0.000219223
0.000218278
0.000217167
0.000215941
0.000214681
0.000213436
0.000212243
0.000211134
0.000238206
0.000235797
0.000234855
0.000234482
0.000234317
0.00023422
0.000234138
0.000234059
0.00023398
0.000233906
0.000233842
0.00023379
0.000233758
0.000233748
0.000233764
0.000233811
0.000233891
0.000234006
0.000234161
0.000234372
0.000234721
0.000235128
0.000235574
0.00023606
0.00023657
0.000237078
0.000237545
0.000237925
0.000238163
0.000238204
0.000237993
0.0002375
0.000236715
0.00023567
0.00023442
0.000233028
0.000231583
0.000230147
0.00022877
0.00022749
0.000253702
0.000250855
0.000249742
0.000249313
0.000249141
0.000249059
0.000249006
0.000248962
0.000248925
0.000248897
0.000248884
0.000248888
0.000248916
0.000248971
0.000249057
0.000249177
0.000249336
0.000249535
0.00024978
0.00025009
0.000250581
0.000251094
0.000251652
0.000252255
0.000252886
0.000253517
0.000254104
0.000254597
0.000254933
0.000255042
0.000254867
0.000254372
0.000253542
0.000252406
0.000251021
0.000249461
0.000247822
0.000246182
0.000244603
0.000243135
0.00026838
0.000265119
0.000263841
0.000263356
0.000263176
0.000263111
0.000263088
0.000263082
0.00026309
0.000263113
0.000263154
0.000263217
0.000263308
0.000263431
0.000263588
0.000263785
0.000264023
0.000264307
0.000264643
0.000265077
0.000265686
0.000266304
0.000266974
0.000267693
0.000268443
0.000269203
0.000269907
0.00027051
0.000270942
0.000271127
0.000271002
0.00027052
0.000269662
0.00026845
0.000266941
0.000265215
0.000263377
0.000261522
0.000259727
0.000258054
0.000282243
0.000278606
0.000277172
0.00027663
0.000276443
0.000276395
0.000276402
0.000276437
0.000276491
0.000276565
0.000276662
0.000276786
0.000276941
0.000277131
0.00027736
0.000277632
0.00027795
0.000278317
0.000278742
0.000279331
0.000280024
0.000280744
0.000281527
0.000282358
0.000283221
0.000284094
0.00028491
0.000285619
0.000286147
0.000286416
0.000286353
0.000285903
0.000285038
0.000283771
0.000282155
0.000280274
0.00027824
0.000276163
0.000274139
0.000272244
0.000295298
0.000291333
0.000289755
0.00028916
0.000288965
0.000288933
0.00028897
0.000289044
0.000289144
0.00028927
0.000289423
0.000289606
0.000289824
0.000290081
0.000290379
0.000290723
0.000291116
0.000291563
0.000292074
0.000292817
0.000293597
0.000294413
0.000295295
0.000296227
0.000297193
0.000298166
0.000299084
0.000299892
0.000300515
0.000300872
0.000300883
0.000300485
0.000299637
0.000298342
0.000296645
0.000294628
0.000292407
0.000290109
0.000287847
0.000285729
0.000307558
0.000303321
0.000301615
0.00030097
0.000300766
0.000300748
0.000300814
0.000300926
0.000301071
0.000301246
0.000301452
0.000301693
0.000301971
0.000302291
0.000302656
0.000303069
0.000303534
0.000304058
0.000304723
0.00030554
0.0003064
0.000307304
0.000308273
0.000309294
0.000310349
0.000311407
0.000312414
0.000313309
0.000314021
0.000314465
0.000314559
0.00031423
0.000313427
0.000312137
0.000310391
0.000308266
0.00030588
0.000303369
0.000300868
0.000298616
0.000319037
0.000314591
0.000312776
0.000312085
0.000311872
0.000311866
0.000311959
0.000312105
0.000312292
0.000312514
0.000312771
0.000313065
0.0003134
0.00031378
0.000314206
0.000314684
0.000315218
0.000315813
0.000316629
0.000317511
0.000318444
0.000319425
0.000320469
0.000321563
0.000322688
0.000323814
0.00032489
0.000325858
0.000326647
0.000327175
0.000327357
0.000327113
0.000326381
0.00032513
0.000323375
0.000321181
0.00031866
0.000315956
0.000313222
0.000310801
0.000329754
0.000325162
0.000323263
0.000322532
0.000322308
0.000322312
0.000322427
0.000322606
0.000322831
0.000323095
0.000323399
0.000323744
0.000324131
0.000324566
0.00032505
0.000325588
0.000326185
0.000326929
0.000327809
0.000328751
0.000329746
0.000330792
0.000331895
0.000333044
0.000334219
0.000335391
0.000336515
0.000337535
0.000338386
0.000338989
0.000339259
0.000339112
0.000338474
0.000337299
0.00033558
0.000333363
0.000330749
0.000327885
0.000325038
0.000322349
0.000339731
0.000335058
0.000333096
0.000332332
0.000332099
0.000332111
0.000332245
0.000332452
0.000332711
0.000333015
0.000333361
0.000333751
0.000334187
0.000334673
0.00033521
0.000335804
0.000336475
0.000337355
0.000338289
0.000339282
0.00034033
0.000341426
0.000342571
0.000343754
0.000344956
0.00034615
0.000347297
0.000348347
0.000349239
0.000349904
0.000350257
0.000350214
0.000349692
0.000348626
0.000346989
0.000344801
0.000342146
0.000339162
0.000336205
0.00033328
0.000348992
0.000344299
0.000342299
0.000341509
0.000341268
0.000341285
0.000341436
0.000341667
0.000341956
0.000342295
0.00034268
0.000343112
0.000343593
0.000344125
0.000344712
0.000345359
0.000346195
0.000347117
0.000348098
0.000349136
0.000350223
0.000351352
0.000352519
0.000353714
0.000354918
0.000356108
0.000357252
0.000358307
0.000359221
0.000359929
0.000360357
0.000360418
0.000360026
0.000359101
0.000357589
0.000355486
0.000352847
0.000349806
0.000346745
0.000343619
0.000357564
0.000352907
0.000350892
0.000350085
0.000349836
0.000349857
0.000350022
0.000350274
0.00035059
0.00035096
0.000351381
0.000351852
0.000352374
0.000352952
0.000353588
0.000354367
0.000355282
0.00035625
0.000357271
0.000358342
0.000359454
0.000360597
0.000361765
0.000362947
0.000364128
0.00036529
0.000366405
0.00036744
0.000368352
0.000369086
0.000369575
0.000369738
0.000369485
0.000368724
0.000367379
0.000365413
0.000362852
0.000359908
0.000356709
0.000353399
0.000365476
0.000360904
0.000358896
0.000358079
0.000357825
0.00035785
0.000358026
0.000358297
0.000358637
0.000359036
0.00035949
0.000359999
0.000360562
0.000361185
0.000361914
0.000362819
0.000363779
0.000364788
0.000365841
0.000366932
0.00036805
0.000369187
0.000370333
0.000371479
0.000372613
0.000373722
0.000374785
0.000375777
0.000376666
0.000377406
0.000377942
0.0003782
0.00037809
0.00037751
0.000376364
0.000374585
0.000372161
0.000369337
0.000366091
0.00036264
0.000372755
0.000368312
0.000366329
0.000365512
0.000365256
0.000365284
0.000365471
0.000365758
0.000366121
0.000366548
0.000367035
0.000367582
0.000368189
0.000368875
0.000369769
0.000370721
0.000371724
0.000372766
0.000373839
0.000374934
0.00037604
0.000377148
0.000378249
0.000379337
0.000380403
0.000381438
0.000382428
0.000383358
0.000384203
0.000384934
0.000385502
0.000385846
0.000385877
0.000385489
0.000384568
0.000383016
0.000380784
0.000378115
0.000374895
0.000371359
0.000379433
0.000375153
0.000373213
0.000372403
0.000372148
0.000372181
0.000372377
0.000372681
0.000373067
0.000373524
0.000374046
0.000374634
0.00037529
0.000376167
0.000377113
0.000378111
0.000379149
0.000380213
0.000381291
0.000382371
0.000383445
0.000384504
0.000385541
0.000386551
0.000387531
0.000388474
0.000389375
0.000390226
0.000391014
0.000391719
0.000392308
0.000392728
0.000392897
0.000392707
0.000392029
0.000390737
0.000388832
0.000386297
0.000383144
0.000379573
0.000385539
0.00038145
0.000379567
0.000378772
0.000378521
0.00037856
0.000378768
0.000379091
0.000379502
0.000379991
0.000380554
0.000381191
0.000382038
0.000382981
0.000383981
0.000385021
0.000386084
0.000387155
0.000388219
0.000389266
0.000390288
0.000391279
0.000392234
0.000393151
0.000394029
0.000394869
0.000395669
0.00039643
0.00039715
0.000397819
0.000398419
0.000398908
0.000399212
0.000399222
0.000398797
0.000397787
0.000396223
0.000393893
0.000390858
0.000387303
0.000391105
0.000387226
0.000385411
0.000384637
0.000384396
0.000384444
0.000384667
0.000385011
0.000385452
0.000385981
0.000386594
0.000387402
0.000388348
0.000389355
0.000390404
0.000391474
0.000392548
0.000393607
0.000394639
0.000395635
0.000396588
0.000397495
0.000398355
0.000399167
0.000399936
0.000400663
0.000401356
0.000402021
0.000402666
0.000403294
0.0004039
0.000404454
0.00040489
0.000405102
0.000404937
0.000404223
0.000402993
0.000400925
0.000398058
0.000394568
0.000396163
0.000392505
0.000390768
0.000390021
0.000389793
0.000389855
0.000390097
0.00039047
0.00039095
0.000391528
0.000392287
0.000393232
0.00039425
0.000395315
0.000396402
0.000397488
0.000398553
0.000399582
0.000400565
0.000401493
0.000402363
0.000403176
0.000403931
0.000404632
0.000405285
0.000405898
0.000406481
0.000407048
0.000407617
0.000408204
0.000408815
0.000409434
0.000410004
0.000410419
0.000410518
0.000410196
0.000409245
0.000407446
0.00040478
0.000401398
0.000400744
0.000397313
0.000395658
0.000394945
0.000394736
0.000394818
0.000395087
0.000395497
0.000396027
0.000396717
0.000397655
0.000398682
0.000399766
0.000400877
0.000401985
0.000403068
0.000404106
0.000405088
0.000406005
0.000406853
0.000407631
0.000408341
0.000408988
0.000409576
0.000410113
0.000410612
0.000411086
0.000411559
0.000412055
0.000412604
0.000413226
0.000413915
0.000414625
0.000415246
0.000415612
0.000415667
0.000415024
0.000413507
0.000411067
0.000407825
0.000404878
0.000401675
0.000400108
0.000399433
0.00039925
0.000399359
0.000399665
0.000400124
0.000400721
0.000401639
0.000402668
0.000403771
0.000404909
0.000406048
0.000407157
0.000408216
0.000409209
0.000410128
0.000410967
0.000411726
0.000412406
0.000413012
0.00041355
0.000414026
0.000414452
0.000414841
0.000415213
0.000415597
0.000416028
0.000416548
0.00041719
0.000417961
0.000418819
0.000419656
0.000420316
0.000420703
0.000420383
0.000419162
0.000416964
0.000413887
0.000408598
0.000405618
0.000404142
0.000403512
0.000403362
0.000403507
0.000403862
0.000404387
0.000405217
0.000406229
0.000407343
0.000408508
0.000409681
0.000410825
0.000411913
0.000412928
0.00041386
0.000414703
0.000415456
0.000416122
0.000416703
0.000417206
0.000417638
0.000418009
0.00041833
0.000418617
0.000418897
0.000419202
0.00041958
0.000420084
0.000420761
0.000421628
0.00042265
0.000423712
0.000424749
0.000425411
0.000425397
0.00042447
0.000422521
0.000419626
0.000411932
0.00040917
0.000407789
0.000407209
0.0004071
0.000407295
0.000407713
0.000408402
0.000409391
0.000410502
0.000411688
0.000412893
0.000414075
0.000415199
0.000416244
0.000417198
0.000418056
0.000418815
0.000419478
0.000420049
0.000420533
0.000420939
0.000421273
0.000421547
0.000421773
0.000421971
0.000422169
0.000422409
0.000422748
0.000423252
0.000423982
0.000424966
0.00042617
0.000427472
0.000428845
0.000429821
0.000430117
0.000429484
0.000427788
0.000425083
0.00041491
0.000412359
0.000411077
0.000410554
0.000410496
0.000410754
0.000411254
0.000412176
0.00041327
0.000414464
0.000415698
0.000416916
0.000418078
0.000419158
0.000420141
0.00042102
0.000421793
0.000422464
0.000423036
0.000423515
0.000423909
0.000424225
0.000424472
0.00042466
0.000424804
0.000424926
0.000425057
0.000425248
0.000425565
0.000426089
0.000426894
0.000428018
0.000429425
0.000431094
0.000432724
0.000433996
0.000434597
0.000434254
0.000432801
0.000430189
0.000417564
0.000415215
0.000414034
0.000413576
0.000413582
0.000413917
0.000414649
0.000415677
0.000416861
0.000418112
0.000419362
0.000420562
0.000421678
0.000422692
0.000423596
0.000424388
0.000425073
0.000425654
0.000426138
0.000426532
0.000426844
0.000427081
0.000427253
0.000427369
0.000427446
0.000427506
0.000427587
0.000427745
0.00042806
0.000428625
0.00042953
0.000430818
0.000432456
0.00043445
0.000436388
0.000437969
0.000438875
0.000438805
0.0004375
0.000435078
0.00041992
0.000417768
0.00041669
0.000416306
0.000416389
0.000416845
0.000417779
0.000418913
0.000420162
0.000421435
0.000422668
0.000423818
0.000424863
0.000425792
0.000426606
0.000427307
0.000427901
0.000428395
0.000428797
0.000429115
0.000429355
0.000429526
0.000429635
0.000429694
0.000429719
0.000429734
0.000429781
0.000429926
0.000430258
0.000430887
0.000431916
0.000433395
0.000435381
0.000437637
0.000439877
0.000441769
0.000442978
0.000443123
0.000441992
0.000439799
0.000422006
0.000420043
0.000419074
0.000418773
0.000418948
0.000419631
0.00042067
0.000421884
0.000423164
0.000424421
0.000425601
0.000426674
0.000427628
0.000428462
0.000429179
0.000429787
0.000430294
0.000430707
0.000431036
0.000431287
0.000431467
0.000431584
0.000431645
0.000431661
0.000431647
0.000431633
0.000431664
0.000431812
0.000432182
0.000432897
0.000434074
0.00043579
0.000438075
0.00044064
0.000443198
0.000445405
0.00044693
0.000447244
0.000446319
0.000444392
0.000423848
0.000422069
0.000421211
0.000421006
0.000421312
0.00042219
0.000423325
0.000424584
0.000425853
0.000427057
0.000428155
0.00042913
0.000429981
0.000430713
0.000431333
0.000431852
0.000432278
0.00043262
0.000432885
0.00043308
0.000433212
0.000433286
0.000433311
0.000433296
0.000433259
0.00043323
0.000433259
0.000433428
0.000433854
0.000434676
0.000436021
0.000438039
0.000440594
0.000443472
0.000446356
0.000448929
0.000450696
0.000451194
0.000450502
0.000448877
0.000425471
0.000423869
0.000423127
0.000423033
0.00042356
0.000424542
0.000425741
0.000427002
0.00042822
0.000429337
0.000430331
0.000431196
0.00043194
0.000432571
0.0004331
0.000433538
0.000433893
0.000434173
0.000434385
0.000434535
0.000434628
0.000434671
0.000434669
0.000434635
0.000434586
0.000434553
0.000434594
0.000434798
0.000435295
0.00043624
0.000437808
0.000440075
0.000442921
0.000446121
0.000449334
0.000452319
0.000454275
0.000454981
0.000454544
0.000453251
0.000426895
0.000425466
0.00042485
0.000424878
0.000425613
0.000426687
0.000427909
0.000429127
0.000430258
0.000431266
0.000432143
0.000432897
0.000433537
0.000434076
0.000434525
0.000434893
0.000435189
0.000435418
0.000435586
0.0004357
0.000435763
0.000435781
0.000435762
0.000435716
0.000435662
0.000435635
0.000435697
0.000435947
0.000436527
0.000437606
0.000439398
0.00044191
0.000445051
0.000448572
0.00045215
0.000455486
0.000457661
0.000458597
0.000458426
0.000457483
0.000428142
0.000426882
0.000426399
0.000426646
0.000427492
0.000428619
0.000429817
0.000430953
0.000431972
0.000432859
0.00043362
0.000434269
0.000434818
0.000435279
0.000435662
0.000435974
0.000436221
0.000436409
0.000436543
0.000436627
0.000436666
0.000436665
0.000436633
0.000436579
0.000436525
0.000436509
0.000436598
0.000436901
0.000437572
0.000438827
0.000440799
0.000443548
0.000446973
0.000450802
0.000454746
0.00045838
0.000460821
0.000462023
0.000462134
0.000461531
2.03237e-05
2.02853e-05
2.02527e-05
2.0224e-05
2.01991e-05
2.01784e-05
2.01617e-05
2.01492e-05
2.01409e-05
2.01367e-05
2.01367e-05
2.01409e-05
2.01492e-05
2.01617e-05
2.01784e-05
2.01991e-05
2.0224e-05
2.02527e-05
2.02853e-05
2.03237e-05
4.05797e-05
4.04952e-05
4.04197e-05
4.03594e-05
4.0306e-05
4.02597e-05
4.02213e-05
4.01916e-05
4.01708e-05
4.01583e-05
4.01583e-05
4.01708e-05
4.01916e-05
4.02213e-05
4.02597e-05
4.0306e-05
4.03594e-05
4.04197e-05
4.04952e-05
4.05797e-05
6.07139e-05
6.05738e-05
6.04459e-05
6.03323e-05
6.0241e-05
6.01589e-05
6.00886e-05
6.00328e-05
5.99934e-05
5.99715e-05
5.99715e-05
5.99934e-05
6.00328e-05
6.00886e-05
6.01589e-05
6.0241e-05
6.03323e-05
6.04459e-05
6.05738e-05
6.07139e-05
8.06765e-05
8.04698e-05
8.02796e-05
8.00972e-05
7.99476e-05
7.98171e-05
7.97025e-05
7.96097e-05
7.95433e-05
7.95067e-05
7.95067e-05
7.95432e-05
7.96097e-05
7.97025e-05
7.98171e-05
7.99476e-05
8.00972e-05
8.02796e-05
8.04698e-05
8.06765e-05
0.000100412
0.000100127
9.9863e-05
9.96091e-05
9.93732e-05
9.9182e-05
9.90115e-05
9.88715e-05
9.87701e-05
9.87139e-05
9.87139e-05
9.87701e-05
9.88715e-05
9.90115e-05
9.9182e-05
9.93732e-05
9.96091e-05
9.9863e-05
0.000100127
0.000100412
0.000119854
0.000119482
0.000119135
0.0001188
0.000118467
0.000118203
0.000117967
0.000117772
0.00011763
0.000117551
0.000117551
0.00011763
0.000117772
0.000117967
0.000118203
0.000118467
0.0001188
0.000119135
0.000119482
0.000119854
0.000138931
0.000138463
0.000138027
0.000137605
0.000137188
0.000136829
0.000136521
0.000136265
0.000136078
0.000135974
0.000135974
0.000136078
0.000136265
0.000136521
0.000136829
0.000137188
0.000137605
0.000138027
0.000138463
0.000138931
0.000157569
0.000156998
0.000156466
0.000155955
0.000155452
0.000155004
0.000154621
0.000154301
0.000154067
0.000153937
0.000153937
0.000154067
0.000154301
0.000154621
0.000155004
0.000155452
0.000155955
0.000156466
0.000156998
0.000157569
0.000175691
0.000175012
0.000174382
0.000173781
0.000173191
0.000172672
0.000172212
0.000171829
0.000171547
0.00017139
0.00017139
0.000171547
0.000171829
0.000172212
0.000172672
0.000173191
0.000173781
0.000174382
0.000175012
0.000175691
0.000193229
0.000192437
0.000191706
0.000191013
0.000190359
0.000189774
0.00018924
0.000188793
0.000188464
0.000188282
0.000188282
0.000188464
0.000188793
0.00018924
0.000189774
0.000190359
0.000191013
0.000191706
0.000192437
0.000193229
0.000210124
0.00020921
0.000208375
0.000207592
0.000206914
0.000206252
0.000205647
0.00020514
0.000204767
0.000204559
0.000204559
0.000204767
0.00020514
0.000205647
0.000206252
0.000206914
0.000207592
0.000208375
0.00020921
0.000210124
0.000226327
0.000225282
0.000224338
0.000223543
0.000222789
0.000222054
0.000221383
0.00022082
0.000220404
0.000220172
0.000220172
0.000220404
0.00022082
0.000221383
0.000222054
0.000222789
0.000223543
0.000224338
0.000225282
0.000226327
0.000241804
0.000240618
0.000239652
0.000238774
0.000237939
0.000237136
0.000236404
0.000235788
0.000235332
0.000235077
0.000235077
0.000235332
0.000235788
0.000236404
0.000237136
0.000237939
0.000238774
0.000239652
0.000240618
0.000241804
0.000256539
0.0002553
0.000254222
0.000253245
0.000252331
0.000251463
0.000250674
0.000250009
0.000249516
0.000249239
0.000249239
0.000249516
0.000250009
0.000250674
0.000251463
0.000252331
0.000253245
0.000254222
0.0002553
0.000256539
0.000270611
0.000269234
0.000268022
0.00026694
0.000265946
0.000265016
0.000264173
0.000263463
0.000262935
0.000262637
0.000262637
0.000262935
0.000263463
0.000264173
0.000265016
0.000265946
0.00026694
0.000268022
0.000269234
0.000270611
0.00028397
0.000282413
0.000281053
0.000279857
0.000278779
0.000277787
0.000276894
0.000276141
0.000275581
0.000275263
0.000275263
0.000275581
0.000276141
0.000276894
0.000277787
0.000278779
0.000279857
0.000281053
0.000282413
0.00028397
0.000296614
0.000294854
0.00029333
0.000292009
0.000290842
0.000289787
0.000288845
0.000288053
0.000287461
0.000287123
0.000287123
0.000287461
0.000288053
0.000288845
0.000289787
0.000290842
0.000292009
0.00029333
0.000294854
0.000296614
0.000308564
0.000306586
0.000304881
0.000303424
0.000302159
0.000301038
0.000300049
0.000299219
0.000298598
0.000298241
0.000298241
0.000298598
0.000299219
0.000300049
0.000301038
0.000302159
0.000303423
0.000304881
0.000306586
0.000308564
0.000319859
0.000317647
0.000315746
0.000314138
0.000312768
0.000311577
0.00031054
0.000309675
0.000309026
0.00030865
0.00030865
0.000309026
0.000309675
0.00031054
0.000311577
0.000312768
0.000314138
0.000315746
0.000317647
0.000319859
0.000330535
0.00032808
0.000325969
0.000324198
0.000322714
0.00032145
0.000320365
0.000319466
0.000318791
0.000318398
0.000318398
0.000318791
0.000319466
0.000320365
0.00032145
0.000322714
0.000324197
0.000325969
0.00032808
0.000330535
0.00034063
0.000337929
0.000335599
0.000333654
0.000332048
0.000330707
0.000329576
0.000328645
0.000327947
0.000327537
0.000327537
0.000327947
0.000328645
0.000329576
0.000330707
0.000332048
0.000333654
0.000335599
0.000337929
0.00034063
0.000350181
0.000347238
0.000344685
0.000342561
0.000340827
0.000339407
0.00033823
0.000337271
0.000336554
0.000336129
0.000336129
0.000336554
0.000337271
0.00033823
0.000339407
0.000340827
0.000342561
0.000344685
0.000347238
0.000350181
0.00035922
0.000356047
0.000353276
0.00035097
0.000349108
0.000347608
0.000346387
0.000345406
0.000344673
0.000344236
0.000344236
0.000344673
0.000345406
0.000346387
0.000347608
0.000349108
0.00035097
0.000353276
0.000356047
0.00035922
0.000367773
0.000364393
0.000361415
0.000358933
0.000356944
0.000355368
0.00035411
0.000353111
0.000352369
0.000351923
0.000351923
0.000352369
0.000353111
0.00035411
0.000355368
0.000356944
0.000358933
0.000361415
0.000364393
0.000367773
0.000375864
0.000372309
0.000369142
0.000366498
0.00036439
0.000362745
0.000361457
0.00036045
0.000359706
0.000359256
0.000359256
0.000359706
0.00036045
0.000361457
0.000362745
0.00036439
0.000366498
0.000369142
0.000372309
0.000375864
0.000383516
0.000379821
0.000376495
0.000373706
0.000371496
0.000369794
0.000368487
0.000367482
0.000366745
0.000366296
0.000366296
0.000366745
0.000367482
0.000368487
0.000369794
0.000371496
0.000373706
0.000376495
0.000379821
0.000383516
0.000390751
0.000386957
0.000383504
0.0003806
0.000378308
0.000376568
0.000375257
0.000374267
0.000373546
0.000373105
0.000373105
0.000373546
0.000374267
0.000375257
0.000376568
0.000378308
0.0003806
0.000383504
0.000386957
0.000390751
0.000397594
0.000393743
0.000390201
0.000387214
0.00038487
0.000383115
0.00038182
0.000380859
0.000380165
0.000379739
0.000379739
0.000380165
0.000380859
0.00038182
0.000383115
0.00038487
0.000387214
0.000390201
0.000393743
0.000397594
0.000404072
0.000400205
0.000396616
0.000393585
0.000391223
0.000389483
0.000388225
0.000387309
0.000386655
0.000386251
0.000386251
0.000386655
0.000387309
0.000388225
0.000389483
0.000391223
0.000393585
0.000396616
0.000400205
0.000404072
0.000410218
0.000406372
0.000402778
0.000399746
0.000397407
0.000395712
0.000394518
0.000393667
0.000393063
0.000392687
0.000392687
0.000393063
0.000393667
0.000394518
0.000395712
0.000397407
0.000399746
0.000402778
0.000406372
0.000410218
0.000416065
0.000412275
0.000408693
0.000405719
0.000403465
0.00040186
0.000400753
0.000399979
0.000399434
0.00039909
0.00039909
0.000399434
0.000399979
0.000400753
0.00040186
0.000403465
0.000405719
0.000408693
0.000412275
0.000416065
0.000421595
0.000417888
0.000414439
0.000411593
0.000409461
0.00040797
0.000406966
0.000406281
0.000405803
0.000405494
0.000405494
0.000405803
0.000406281
0.000406966
0.00040797
0.000409461
0.000411593
0.000414439
0.000417888
0.000421595
0.000426866
0.000423341
0.000420078
0.000417404
0.000415426
0.000414073
0.000413189
0.000412603
0.000412198
0.000411929
0.000411929
0.000412198
0.000412603
0.000413189
0.000414073
0.000415426
0.000417403
0.000420078
0.000423341
0.000426866
0.000431972
0.000428679
0.000425645
0.000423181
0.000421388
0.000420196
0.000419446
0.000418969
0.000418643
0.000418417
0.000418417
0.000418643
0.000418969
0.000419446
0.000420196
0.000421388
0.000423181
0.000425645
0.000428679
0.000431972
0.000436957
0.000433937
0.00043117
0.000428949
0.00042737
0.000426359
0.000425759
0.000425399
0.000425158
0.00042498
0.00042498
0.000425158
0.000425399
0.000425759
0.000426359
0.00042737
0.000428949
0.00043117
0.000433936
0.000436957
0.000441853
0.000439141
0.000436672
0.000434727
0.00043339
0.000432583
0.000432145
0.000431912
0.000431761
0.000431633
0.000431633
0.000431761
0.000431912
0.000432145
0.000432583
0.00043339
0.000434727
0.000436672
0.000439141
0.000441853
0.000446679
0.000444306
0.000442168
0.000440532
0.000439468
0.000438886
0.000438625
0.000438524
0.000438465
0.000438389
0.000438389
0.000438465
0.000438524
0.000438625
0.000438886
0.000439468
0.000440532
0.000442168
0.000444306
0.000446678
0.000451436
0.000449436
0.000447667
0.000446385
0.000445629
0.000445294
0.00044522
0.000445252
0.000445284
0.000445259
0.000445259
0.000445284
0.000445252
0.00044522
0.000445294
0.000445629
0.000446385
0.000447667
0.000449436
0.000451436
0.000456112
0.000454533
0.000453196
0.000452325
0.000451913
0.000451838
0.000451948
0.000452107
0.000452223
0.000452245
0.000452245
0.000452223
0.000452107
0.000451948
0.000451838
0.000451913
0.000452325
0.000453196
0.000454533
0.000456112
0.000460733
0.000459633
0.000458828
0.000458424
0.000458361
0.000458529
0.000458803
0.000459072
0.000459259
0.000459327
0.000459327
0.000459259
0.000459072
0.000458803
0.000458529
0.000458361
0.000458424
0.000458828
0.000459633
0.000460733
2.03665e-05
2.04132e-05
2.04634e-05
2.05165e-05
2.05718e-05
2.06314e-05
2.06929e-05
2.07553e-05
2.08184e-05
2.08799e-05
2.09401e-05
2.09991e-05
2.10572e-05
2.11146e-05
2.11718e-05
2.12291e-05
2.12866e-05
2.13443e-05
2.14027e-05
2.14644e-05
2.1525e-05
2.15841e-05
2.16415e-05
2.16969e-05
2.17502e-05
2.18012e-05
2.18497e-05
2.18956e-05
2.19386e-05
2.19787e-05
2.20157e-05
2.20495e-05
2.20799e-05
2.2107e-05
2.21306e-05
2.21606e-05
2.22055e-05
2.22607e-05
2.22588e-05
2.21983e-05
4.06733e-05
4.07761e-05
4.08874e-05
4.10057e-05
4.113e-05
4.12608e-05
4.13929e-05
4.15242e-05
4.16524e-05
4.17739e-05
4.18885e-05
4.19967e-05
4.20999e-05
4.21998e-05
4.22982e-05
4.23968e-05
4.24966e-05
4.25981e-05
4.27029e-05
4.2821e-05
4.29377e-05
4.3052e-05
4.31634e-05
4.32715e-05