/*--------------------------------*- C++ -*----------------------------------*\
  =========                 |
  \\      /  F ield         | OpenFOAM: The Open Source CFD Toolbox
   \\    /   O peration     | Website:  https://openfoam.org
    \\  /    A nd           | Version:  6
     \\/     M anipulation  |
\*---------------------------------------------------------------------------*/
FoamFile
{
    version     2.0;
    format      ascii;
    class       volScalarField;
    location    "20";
    object      p;
}
// * * * * * * * * * * * * * * * * * * * * * * * * * * * * * * * * * * * * * //

dimensions      [0 2 -2 0 0 0 0];

internalField   nonuniform List<scalar> 
8800
(
1.92581e-10
3.89984e-07
6.17935e-07
7.10321e-07
7.48081e-07
7.64374e-07
7.70181e-07
7.69891e-07
7.66077e-07
7.60197e-07
7.53097e-07
7.45336e-07
7.37316e-07
7.29362e-07
7.21735e-07
7.14643e-07
7.08241e-07
7.02622e-07
6.97795e-07
6.93669e-07
6.90044e-07
6.8671e-07
6.83604e-07
6.79377e-07
6.72609e-07
6.61723e-07
6.44873e-07
6.20063e-07
5.85411e-07
5.39422e-07
4.81312e-07
4.11268e-07
3.30697e-07
2.43147e-07
1.51343e-07
5.83639e-08
-3.30264e-08
-1.23106e-07
-2.11359e-07
-2.96613e-07
-1.90618e-05
-1.92814e-05
-1.93756e-05
-1.94096e-05
-1.94347e-05
-1.94612e-05
-1.94908e-05
-1.95245e-05
-1.95623e-05
-1.96039e-05
-1.96486e-05
-1.9696e-05
-1.97456e-05
-1.97968e-05
-1.98492e-05
-1.99022e-05
-1.99554e-05
-2.00085e-05
-2.0061e-05
-2.01126e-05
-2.01632e-05
-2.02126e-05
-2.02616e-05
-2.03102e-05
-2.03591e-05
-2.04091e-05
-2.04614e-05
-2.05177e-05
-2.05794e-05
-2.0648e-05
-2.07246e-05
-2.08095e-05
-2.09026e-05
-2.10038e-05
-2.11116e-05
-2.12246e-05
-2.13405e-05
-2.14557e-05
-2.15676e-05
-2.16744e-05
-3.45928e-05
-3.46774e-05
-3.47243e-05
-3.47535e-05
-3.47849e-05
-3.48219e-05
-3.48644e-05
-3.49122e-05
-3.49653e-05
-3.50234e-05
-3.50861e-05
-3.51532e-05
-3.52241e-05
-3.52983e-05
-3.53755e-05
-3.54549e-05
-3.55362e-05
-3.5619e-05
-3.57028e-05
-3.57873e-05
-3.58724e-05
-3.59583e-05
-3.60455e-05
-3.61338e-05
-3.62235e-05
-3.63151e-05
-3.64094e-05
-3.65073e-05
-3.661e-05
-3.67181e-05
-3.68319e-05
-3.69515e-05
-3.7076e-05
-3.72043e-05
-3.73346e-05
-3.74646e-05
-3.75928e-05
-3.77177e-05
-3.78383e-05
-3.79537e-05
-4.79021e-05
-4.7914e-05
-4.79291e-05
-4.79554e-05
-4.7993e-05
-4.80399e-05
-4.80952e-05
-4.81582e-05
-4.82287e-05
-4.83062e-05
-4.83904e-05
-4.84808e-05
-4.85769e-05
-4.86781e-05
-4.87838e-05
-4.88936e-05
-4.90066e-05
-4.91224e-05
-4.92405e-05
-4.93602e-05
-4.94814e-05
-4.96036e-05
-4.97266e-05
-4.98502e-05
-4.99745e-05
-5.00999e-05
-5.02267e-05
-5.03558e-05
-5.04876e-05
-5.06228e-05
-5.07616e-05
-5.09039e-05
-5.10491e-05
-5.1196e-05
-5.13435e-05
-5.14899e-05
-5.16336e-05
-5.17733e-05
-5.19076e-05
-5.20355e-05
-6.01589e-05
-6.01834e-05
-6.02118e-05
-6.02503e-05
-6.03004e-05
-6.03612e-05
-6.04323e-05
-6.05132e-05
-6.06034e-05
-6.07027e-05
-6.08105e-05
-6.09261e-05
-6.10491e-05
-6.11787e-05
-6.13142e-05
-6.14549e-05
-6.16e-05
-6.17487e-05
-6.19003e-05
-6.20541e-05
-6.22095e-05
-6.23657e-05
-6.25217e-05
-6.26771e-05
-6.28319e-05
-6.29861e-05
-6.314e-05
-6.32942e-05
-6.34491e-05
-6.36053e-05
-6.37633e-05
-6.39231e-05
-6.40845e-05
-6.42468e-05
-6.4409e-05
-6.45699e-05
-6.4728e-05
-6.4882e-05
-6.50304e-05
-6.51718e-05
-7.14125e-05
-7.14515e-05
-7.14914e-05
-7.15394e-05
-7.15998e-05
-7.16726e-05
-7.17575e-05
-7.18542e-05
-7.19623e-05
-7.20811e-05
-7.22101e-05
-7.23486e-05
-7.24959e-05
-7.26511e-05
-7.28136e-05
-7.29822e-05
-7.31562e-05
-7.33346e-05
-7.35164e-05
-7.37009e-05
-7.38871e-05
-7.4074e-05
-7.42602e-05
-7.44448e-05
-7.46275e-05
-7.48081e-05
-7.49868e-05
-7.5164e-05
-7.534e-05
-7.55157e-05
-7.56916e-05
-7.58682e-05
-7.60456e-05
-7.62234e-05
-7.64009e-05
-7.65769e-05
-7.67501e-05
-7.69188e-05
-7.70816e-05
-7.72369e-05
-8.16793e-05
-8.17227e-05
-8.17677e-05
-8.18223e-05
-8.18912e-05
-8.19747e-05
-8.20724e-05
-8.21837e-05
-8.23083e-05
-8.24453e-05
-8.25942e-05
-8.2754e-05
-8.29241e-05
-8.31034e-05
-8.32909e-05
-8.34857e-05
-8.36866e-05
-8.38926e-05
-8.41025e-05
-8.43153e-05
-8.45299e-05
-8.47449e-05
-8.49582e-05
-8.51689e-05
-8.53764e-05
-8.55802e-05
-8.57804e-05
-8.59771e-05
-8.61709e-05
-8.63627e-05
-8.65534e-05
-8.67439e-05
-8.69347e-05
-8.71258e-05
-8.73168e-05
-8.75066e-05
-8.76937e-05
-8.78765e-05
-8.80532e-05
-8.82219e-05
-9.10364e-05
-9.10814e-05
-9.11299e-05
-9.11903e-05
-9.12672e-05
-9.13607e-05
-9.14702e-05
-9.15952e-05
-9.17351e-05
-9.18892e-05
-9.20566e-05
-9.22364e-05
-9.24276e-05
-9.26292e-05
-9.284e-05
-9.30588e-05
-9.32845e-05
-9.35156e-05
-9.3751e-05
-9.39894e-05
-9.42296e-05
-9.44694e-05
-9.47065e-05
-9.49397e-05
-9.51683e-05
-9.53916e-05
-9.56094e-05
-9.58219e-05
-9.60297e-05
-9.6234e-05
-9.6436e-05
-9.6637e-05
-9.68382e-05
-9.704e-05
-9.72421e-05
-9.74438e-05
-9.76432e-05
-9.78388e-05
-9.80283e-05
-9.82097e-05
-9.956e-05
-9.96056e-05
-9.96572e-05
-9.97228e-05
-9.98069e-05
-9.99092e-05
-0.000100029
-0.000100167
-0.00010032
-0.00010049
-0.000100674
-0.000100872
-0.000101082
-0.000101303
-0.000101535
-0.000101775
-0.000102022
-0.000102276
-0.000102533
-0.000102794
-0.000103056
-0.000103317
-0.000103574
-0.000103826
-0.000104072
-0.000104312
-0.000104543
-0.000104768
-0.000104986
-0.0001052
-0.00010541
-0.000105619
-0.000105828
-0.000106038
-0.000106249
-0.00010646
-0.00010667
-0.000106877
-0.000107078
-0.000107271
-0.000107317
-0.000107362
-0.000107416
-0.000107486
-0.000107576
-0.000107686
-0.000107816
-0.000107964
-0.000108129
-0.000108312
-0.000108511
-0.000108724
-0.00010895
-0.000109189
-0.000109438
-0.000109696
-0.000109963
-0.000110235
-0.000110512
-0.000110791
-0.000111072
-0.00011135
-0.000111623
-0.000111891
-0.00011215
-0.000112402
-0.000112644
-0.000112878
-0.000113103
-0.000113323
-0.000113538
-0.000113752
-0.000113966
-0.000114182
-0.000114399
-0.000114618
-0.000114836
-0.000115053
-0.000115264
-0.000115467
-0.000114369
-0.000114413
-0.000114468
-0.000114542
-0.000114637
-0.000114754
-0.00011489
-0.000115047
-0.000115223
-0.000115417
-0.000115627
-0.000115853
-0.000116093
-0.000116346
-0.00011661
-0.000116884
-0.000117165
-0.000117453
-0.000117745
-0.000118041
-0.000118336
-0.000118627
-0.000118913
-0.000119191
-0.000119462
-0.000119722
-0.000119971
-0.00012021
-0.00012044
-0.000120664
-0.000120882
-0.000121098
-0.000121315
-0.000121533
-0.000121754
-0.000121978
-0.000122203
-0.000122427
-0.000122647
-0.000122859
-0.000120773
-0.000120815
-0.000120871
-0.000120947
-0.000121046
-0.000121168
-0.000121311
-0.000121475
-0.000121658
-0.000121861
-0.000122081
-0.000122317
-0.000122567
-0.000122831
-0.000123107
-0.000123392
-0.000123686
-0.000123986
-0.00012429
-0.000124597
-0.000124903
-0.000125204
-0.000125498
-0.000125785
-0.000126062
-0.000126327
-0.000126581
-0.000126823
-0.000127055
-0.000127279
-0.000127498
-0.000127713
-0.000127929
-0.000128148
-0.000128371
-0.000128599
-0.000128829
-0.000129059
-0.000129285
-0.000129503
-0.000126582
-0.000126621
-0.000126677
-0.000126755
-0.000126857
-0.000126981
-0.000127129
-0.000127298
-0.000127487
-0.000127696
-0.000127923
-0.000128166
-0.000128425
-0.000128697
-0.000128981
-0.000129275
-0.000129577
-0.000129886
-0.000130199
-0.000130514
-0.000130826
-0.000131133
-0.000131433
-0.000131724
-0.000132005
-0.000132272
-0.000132527
-0.00013277
-0.000133001
-0.000133223
-0.000133439
-0.000133651
-0.000133865
-0.000134084
-0.000134308
-0.000134537
-0.00013477
-0.000135003
-0.000135232
-0.000135453
-0.000131843
-0.000131879
-0.000131934
-0.000132013
-0.000132116
-0.000132243
-0.000132393
-0.000132565
-0.000132758
-0.000132971
-0.000133202
-0.00013345
-0.000133714
-0.000133991
-0.000134281
-0.00013458
-0.000134888
-0.000135202
-0.00013552
-0.000135839
-0.000136154
-0.000136464
-0.000136766
-0.000137059
-0.00013734
-0.000137608
-0.000137861
-0.000138102
-0.000138329
-0.000138546
-0.000138757
-0.000138965
-0.000139176
-0.000139392
-0.000139615
-0.000139844
-0.000140077
-0.00014031
-0.000140538
-0.000140759
-0.000136601
-0.000136633
-0.000136687
-0.000136766
-0.00013687
-0.000136998
-0.000137149
-0.000137322
-0.000137517
-0.000137731
-0.000137964
-0.000138215
-0.00013848
-0.00013876
-0.000139052
-0.000139354
-0.000139664
-0.00013998
-0.0001403
-0.000140619
-0.000140935
-0.000141245
-0.000141547
-0.000141838
-0.000142117
-0.000142382
-0.000142631
-0.000142866
-0.000143087
-0.000143297
-0.000143502
-0.000143704
-0.00014391
-0.000144122
-0.000144342
-0.000144568
-0.000144798
-0.000145027
-0.000145251
-0.000145466
-0.000140897
-0.000140926
-0.000140978
-0.000141056
-0.000141159
-0.000141286
-0.000141437
-0.00014161
-0.000141804
-0.000142018
-0.00014225
-0.0001425
-0.000142766
-0.000143045
-0.000143336
-0.000143638
-0.000143948
-0.000144264
-0.000144583
-0.0001449
-0.000145212
-0.000145519
-0.000145819
-0.000146106
-0.00014638
-0.000146638
-0.000146881
-0.000147107
-0.00014732
-0.000147522
-0.000147719
-0.000147915
-0.000148114
-0.000148321
-0.000148535
-0.000148756
-0.000148979
-0.000149199
-0.000149413
-0.000149614
-0.000144769
-0.000144794
-0.000144844
-0.000144921
-0.000145022
-0.000145147
-0.000145296
-0.000145466
-0.000145658
-0.00014587
-0.0001461
-0.000146347
-0.00014661
-0.000146886
-0.000147175
-0.000147474
-0.000147781
-0.000148094
-0.000148409
-0.000148721
-0.000149028
-0.00014933
-0.000149623
-0.000149903
-0.000150169
-0.000150419
-0.000150652
-0.000150869
-0.000151072
-0.000151265
-0.000151453
-0.00015164
-0.000151832
-0.000152031
-0.000152237
-0.000152448
-0.000152659
-0.000152866
-0.000153063
-0.00015324
-0.000148253
-0.000148274
-0.000148322
-0.000148396
-0.000148494
-0.000148617
-0.000148762
-0.000148929
-0.000149116
-0.000149324
-0.000149549
-0.000149792
-0.00015005
-0.000150321
-0.000150605
-0.000150899
-0.000151201
-0.000151508
-0.000151815
-0.00015212
-0.00015242
-0.000152714
-0.000152998
-0.000153269
-0.000153525
-0.000153765
-0.000153987
-0.000154193
-0.000154385
-0.000154567
-0.000154744
-0.000154922
-0.000155104
-0.000155292
-0.000155487
-0.000155684
-0.000155878
-0.000156063
-0.000156232
-0.000156374
-0.000151381
-0.000151399
-0.000151444
-0.000151515
-0.00015161
-0.000151728
-0.000151869
-0.00015203
-0.000152212
-0.000152414
-0.000152633
-0.000152869
-0.000153119
-0.000153384
-0.000153661
-0.000153947
-0.000154242
-0.00015454
-0.000154837
-0.000155133
-0.000155424
-0.000155708
-0.000155981
-0.000156241
-0.000156486
-0.000156713
-0.000156922
-0.000157116
-0.000157296
-0.000157466
-0.000157632
-0.000157798
-0.000157968
-0.000158144
-0.000158322
-0.000158499
-0.000158668
-0.000158821
-0.00015895
-0.000159043
-0.000154183
-0.000154198
-0.000154241
-0.000154308
-0.000154399
-0.000154512
-0.000154647
-0.000154802
-0.000154977
-0.000155171
-0.000155382
-0.000155609
-0.000155851
-0.000156107
-0.000156374
-0.000156651
-0.000156935
-0.000157222
-0.000157509
-0.000157793
-0.000158073
-0.000158345
-0.000158606
-0.000158854
-0.000159085
-0.000159298
-0.000159494
-0.000159675
-0.000159842
-0.000159999
-0.000160152
-0.000160306
-0.000160461
-0.000160619
-0.000160776
-0.000160924
-0.000161057
-0.000161166
-0.000161238
-0.000161271
-0.000156689
-0.000156701
-0.000156741
-0.000156805
-0.000156891
-0.000156999
-0.000157127
-0.000157274
-0.000157441
-0.000157625
-0.000157826
-0.000158043
-0.000158274
-0.000158519
-0.000158775
-0.000159041
-0.000159312
-0.000159586
-0.00015986
-0.000160133
-0.0001604
-0.000160659
-0.000160906
-0.000161139
-0.000161355
-0.000161554
-0.000161736
-0.000161902
-0.000162055
-0.000162199
-0.000162339
-0.000162477
-0.000162614
-0.000162749
-0.000162876
-0.000162986
-0.000163069
-0.000163117
-0.000163116
-0.000163071
-0.000158924
-0.000158935
-0.000158972
-0.000159032
-0.000159113
-0.000159214
-0.000159334
-0.000159473
-0.000159629
-0.000159802
-0.000159992
-0.000160197
-0.000160416
-0.000160648
-0.000160891
-0.000161143
-0.000161401
-0.000161661
-0.000161921
-0.00016218
-0.000162433
-0.000162677
-0.000162909
-0.000163126
-0.000163328
-0.000163511
-0.000163678
-0.00016383
-0.000163968
-0.000164098
-0.000164222
-0.000164342
-0.000164456
-0.000164562
-0.000164648
-0.000164705
-0.000164723
-0.000164688
-0.000164592
-0.000164448
-0.000160914
-0.000160923
-0.000160957
-0.000161013
-0.000161089
-0.000161182
-0.000161294
-0.000161423
-0.000161568
-0.000161729
-0.000161906
-0.000162097
-0.000162302
-0.00016252
-0.000162748
-0.000162985
-0.000163227
-0.000163473
-0.000163718
-0.000163962
-0.000164199
-0.000164428
-0.000164644
-0.000164846
-0.000165031
-0.000165199
-0.00016535
-0.000165486
-0.000165609
-0.000165723
-0.000165829
-0.000165927
-0.000166013
-0.000166078
-0.000166111
-0.000166098
-0.000166026
-0.000165883
-0.000165667
-0.0001654
-0.000162682
-0.000162689
-0.000162721
-0.000162773
-0.000162842
-0.000162928
-0.00016303
-0.000163148
-0.000163281
-0.000163429
-0.000163591
-0.000163768
-0.000163957
-0.000164158
-0.000164371
-0.000164591
-0.000164817
-0.000165047
-0.000165277
-0.000165505
-0.000165726
-0.000165939
-0.000166139
-0.000166323
-0.000166492
-0.000166643
-0.000166778
-0.000166897
-0.000167004
-0.0001671
-0.000167184
-0.000167255
-0.000167303
-0.000167316
-0.000167278
-0.000167172
-0.000166986
-0.000166703
-0.000166337
-0.000165913
-0.000164248
-0.000164255
-0.000164284
-0.000164332
-0.000164395
-0.000164472
-0.000164564
-0.000164671
-0.00016479
-0.000164924
-0.00016507
-0.00016523
-0.000165402
-0.000165586
-0.000165781
-0.000165984
-0.000166194
-0.000166407
-0.000166622
-0.000166833
-0.000167039
-0.000167235
-0.000167418
-0.000167586
-0.000167737
-0.00016787
-0.000167987
-0.000168089
-0.000168176
-0.000168251
-0.000168309
-0.000168344
-0.000168343
-0.000168287
-0.000168155
-0.000167929
-0.000167592
-0.000167133
-0.000166578
-0.000165961
-0.000165633
-0.00016564
-0.000165667
-0.00016571
-0.000165766
-0.000165835
-0.000165917
-0.00016601
-0.000166116
-0.000166233
-0.000166362
-0.000166504
-0.000166658
-0.000166825
-0.000167002
-0.000167187
-0.00016738
-0.000167578
-0.000167776
-0.000167972
-0.000168162
-0.000168341
-0.000168507
-0.000168657
-0.00016879
-0.000168904
-0.000169002
-0.000169083
-0.000169148
-0.000169196
-0.000169221
-0.00016921
-0.000169143
-0.000168996
-0.000168742
-0.000168357
-0.000167826
-0.00016715
-0.000166362
-0.000165504
-0.000166855
-0.000166863
-0.000166888
-0.000166926
-0.000166976
-0.000167036
-0.000167106
-0.000167186
-0.000167276
-0.000167377
-0.000167488
-0.000167611
-0.000167747
-0.000167894
-0.000168053
-0.000168222
-0.000168399
-0.000168581
-0.000168764
-0.000168945
-0.00016912
-0.000169283
-0.000169432
-0.000169563
-0.000169676
-0.000169769
-0.000169844
-0.0001699
-0.000169938
-0.000169953
-0.000169934
-0.000169862
-0.00016971
-0.000169444
-0.000169032
-0.000168447
-0.000167671
-0.000166723
-0.000165646
-0.000164491
-0.000167933
-0.000167941
-0.000167964
-0.000167998
-0.00016804
-0.000168091
-0.000168149
-0.000168215
-0.00016829
-0.000168372
-0.000168464
-0.000168569
-0.000168685
-0.000168814
-0.000168956
-0.000169109
-0.000169271
-0.00016944
-0.00016961
-0.000169778
-0.000169937
-0.000170085
-0.000170216
-0.000170327
-0.000170418
-0.000170487
-0.000170535
-0.000170562
-0.000170565
-0.000170536
-0.000170459
-0.000170307
-0.000170042
-0.000169622
-0.000169005
-0.000168167
-0.000167087
-0.000165804
-0.000164371
-0.000162854
-0.000168882
-0.000168891
-0.000168912
-0.000168941
-0.000168976
-0.000169017
-0.000169063
-0.000169115
-0.000169172
-0.000169236
-0.00016931
-0.000169395
-0.000169493
-0.000169604
-0.00016973
-0.00016987
-0.000170021
-0.000170179
-0.000170338
-0.000170494
-0.00017064
-0.000170772
-0.000170884
-0.000170974
-0.00017104
-0.00017108
-0.000171096
-0.000171085
-0.000171044
-0.000170959
-0.000170807
-0.00017055
-0.000170138
-0.000169519
-0.000168642
-0.000167479
-0.000166029
-0.000164336
-0.000162469
-0.000160512
-0.000169718
-0.000169728
-0.000169747
-0.000169771
-0.000169799
-0.00016983
-0.000169863
-0.0001699
-0.000169939
-0.000169985
-0.00017004
-0.000170106
-0.000170187
-0.000170284
-0.000170399
-0.000170529
-0.000170672
-0.000170822
-0.000170974
-0.00017112
-0.000171254
-0.00017137
-0.000171463
-0.000171528
-0.000171565
-0.000171571
-0.000171548
-0.000171491
-0.000171393
-0.000171235
-0.000170985
-0.000170592
-0.000169993
-0.000169121
-0.000167925
-0.000166359
-0.00016445
-0.000162256
-0.000159861
-0.00015737
-0.000170455
-0.000170466
-0.000170482
-0.000170501
-0.000170522
-0.000170543
-0.000170564
-0.000170584
-0.000170605
-0.000170633
-0.00017067
-0.000170719
-0.000170787
-0.000170874
-0.000170982
-0.000171109
-0.000171249
-0.000171396
-0.000171543
-0.000171682
-0.000171805
-0.000171905
-0.000171976
-0.000172014
-0.000172017
-0.000171983
-0.000171912
-0.000171798
-0.000171629
-0.000171379
-0.000171004
-0.000170438
-0.000169601
-0.000168409
-0.00016681
-0.00016476
-0.000162297
-0.000159495
-0.00015646
-0.000153326
-0.000171107
-0.000171118
-0.000171132
-0.000171146
-0.000171159
-0.000171169
-0.000171177
-0.00017118
-0.000171186
-0.000171195
-0.000171215
-0.000171252
-0.000171312
-0.000171396
-0.000171505
-0.000171634
-0.000171777
-0.000171926
-0.000172073
-0.000172207
-0.000172319
-0.000172402
-0.000172449
-0.000172456
-0.00017242
-0.000172339
-0.00017221
-0.000172027
-0.00017177
-0.000171406
-0.000170874
-0.000170093
-0.000168964
-0.000167391
-0.000165286
-0.000162648
-0.000159517
-0.000155984
-0.000152176
-0.000148269
-0.000171687
-0.000171698
-0.000171708
-0.000171717
-0.000171721
-0.00017172
-0.000171712
-0.000171701
-0.000171689
-0.000171683
-0.000171692
-0.000171724
-0.000171784
-0.000171873
-0.000171991
-0.00017213
-0.000172283
-0.000172439
-0.000172589
-0.00017272
-0.000172823
-0.000172888
-0.000172909
-0.000172881
-0.0001728
-0.000172664
-0.000172468
-0.000172201
-0.000171839
-0.000171335
-0.000170613
-0.000169568
-0.000168076
-0.000166037
-0.000163346
-0.000160007
-0.00015608
-0.000151674
-0.000146935
-0.000142132
-0.000172205
-0.000172216
-0.000172222
-0.000172224
-0.00017222
-0.000172207
-0.000172182
-0.000172155
-0.000172128
-0.000172113
-0.000172118
-0.000172154
-0.000172224
-0.000172329
-0.000172464
-0.000172622
-0.000172791
-0.000172961
-0.000173117
-0.000173248
-0.000173341
-0.000173388
-0.000173381
-0.000173313
-0.000173182
-0.000172983
-0.00017271
-0.000172347
-0.000171861
-0.000171192
-0.000170245
-0.00016889
-0.000166983
-0.000164369
-0.000160989
-0.000156835
-0.000151978
-0.000146545
-0.000140748
-0.000134907
-0.000172673
-0.000172682
-0.000172684
-0.000172679
-0.000172664
-0.000172635
-0.000172598
-0.000172556
-0.000172519
-0.000172501
-0.000172513
-0.000172563
-0.000172655
-0.000172787
-0.00017295
-0.000173135
-0.000173329
-0.000173517
-0.000173683
-0.000173816
-0.000173901
-0.000173928
-0.00017389
-0.00017378
-0.000173593
-0.000173325
-0.000172966
-0.000172494
-0.000171867
-0.000171009
-0.0001698
-0.000168084
-0.000165693
-0.000162447
-0.000158278
-0.000153189
-0.000147284
-0.000140693
-0.000133721
-0.000126578
-0.000173101
-0.000173107
-0.000173103
-0.000173089
-0.000173062
-0.000173017
-0.000172966
-0.000172913
-0.000172875
-0.000172865
-0.000172896
-0.000172974
-0.000173101
-0.000173271
-0.000173474
-0.000173695
-0.00017392
-0.00017413
-0.000174311
-0.000174447
-0.000174524
-0.000174532
-0.000174461
-0.000174305
-0.000174059
-0.000173716
-0.000173264
-0.000172674
-0.000171893
-0.000170826
-0.000169329
-0.000167221
-0.00016427
-0.000160328
-0.000155297
-0.000149204
-0.000142175
-0.000134408
-0.00012606
-0.000117225
-0.000173497
-0.000173499
-0.000173489
-0.000173463
-0.000173419
-0.000173363
-0.000173299
-0.000173243
-0.000173213
-0.000173224
-0.000173288
-0.000173409
-0.000173585
-0.000173806
-0.000174057
-0.000174323
-0.000174585
-0.000174824
-0.000175022
-0.000175163
-0.000175233
-0.00017522
-0.000175116
-0.000174913
-0.000174605
-0.000174185
-0.000173636
-0.000172922
-0.000171978
-0.00017069
-0.000168891
-0.000166353
-0.000162833
-0.000158155
-0.000152197
-0.000145159
-0.000137012
-0.00012816
-0.000118264
-0.000107106
-0.000173871
-0.000173868
-0.000173848
-0.00017381
-0.000173748
-0.000173679
-0.00017361
-0.00017356
-0.000173551
-0.000173599
-0.000173712
-0.000173891
-0.000174129
-0.000174412
-0.000174722
-0.000175041
-0.000175345
-0.000175616
-0.000175834
-0.000175981
-0.000176045
-0.000176012
-0.000175874
-0.000175624
-0.000175255
-0.000174758
-0.000174111
-0.000173273
-0.000172165
-0.000170652
-0.000168546
-0.000165571
-0.0001615
-0.000156117
-0.000149271
-0.000141362
-0.000132421
-0.000122701
-0.000111411
-9.71229e-05
-0.000174231
-0.000174221
-0.000174189
-0.000174133
-0.00017406
-0.00017398
-0.000173912
-0.000173882
-0.000173909
-0.000174009
-0.000174187
-0.000174439
-0.000174752
-0.000175108
-0.000175486
-0.000175863
-0.000176215
-0.00017652
-0.00017676
-0.000176915
-0.000176973
-0.000176921
-0.000176751
-0.000176456
-0.000176028
-0.000175457
-0.000174717
-0.000173762
-0.0001725
-0.000170782
-0.000168368
-0.000165005
-0.000160442
-0.000154447
-0.000146923
-0.000138388
-0.000129178
-0.000119323
-0.000108337
-9.14651e-05
-0.000174586
-0.000174567
-0.000174522
-0.000174446
-0.00017436
-0.000174277
-0.000174222
-0.000174225
-0.000174305
-0.000174475
-0.000174734
-0.000175073
-0.000175473
-0.000175911
-0.000176363
-0.000176803
-0.000177205
-0.000177548
-0.00017781
-0.000177975
-0.000178028
-0.000177959
-0.000177759
-0.000177422
-0.00017694
-0.0001763
-0.000175476
-0.000174412
-0.000173011
-0.000171102
-0.000168433
-0.00016476
-0.000159824
-0.000153402
-0.000145496
-0.000136913
-0.000128168
-0.000119241
-0.000111231
-9.46684e-05
-3.77916e-07
-4.54636e-07
-5.26495e-07
-5.9352e-07
-6.55694e-07
-7.12185e-07
-7.61435e-07
-8.0169e-07
-8.31316e-07
-8.48289e-07
-8.48283e-07
-8.313e-07
-8.01667e-07
-7.6141e-07
-7.12158e-07
-6.55667e-07
-5.93493e-07
-5.26469e-07
-4.5461e-07
-3.77897e-07
-2.17747e-05
-2.18679e-05
-2.19534e-05
-2.20315e-05
-2.21012e-05
-2.21614e-05
-2.22106e-05
-2.22474e-05
-2.22709e-05
-2.22811e-05
-2.22811e-05
-2.22709e-05
-2.22474e-05
-2.22105e-05
-2.21613e-05
-2.21011e-05
-2.20314e-05
-2.19534e-05
-2.18678e-05
-2.17747e-05
-3.80631e-05
-3.81656e-05
-3.82603e-05
-3.83467e-05
-3.84243e-05
-3.84921e-05
-3.85485e-05
-3.85925e-05
-3.86228e-05
-3.86385e-05
-3.86385e-05
-3.86227e-05
-3.85924e-05
-3.85485e-05
-3.8492e-05
-3.84243e-05
-3.83467e-05
-3.82603e-05
-3.81655e-05
-3.80631e-05
-5.21559e-05
-5.2268e-05
-5.23711e-05
-5.24641e-05
-5.2546e-05
-5.26163e-05
-5.2674e-05
-5.27182e-05
-5.27483e-05
-5.27639e-05
-5.27639e-05
-5.27483e-05
-5.27182e-05
-5.2674e-05
-5.26163e-05
-5.2546e-05
-5.2464e-05
-5.23711e-05
-5.2268e-05
-5.21559e-05
-6.5305e-05
-6.54288e-05
-6.55421e-05
-6.56437e-05
-6.57322e-05
-6.58071e-05
-6.58677e-05
-6.59134e-05
-6.59439e-05
-6.59591e-05
-6.59591e-05
-6.59439e-05
-6.59134e-05
-6.58677e-05
-6.58071e-05
-6.57322e-05
-6.56436e-05
-6.55421e-05
-6.54288e-05
-6.5305e-05
-7.73831e-05
-7.75189e-05
-7.7643e-05
-7.77541e-05
-7.78512e-05
-7.79332e-05
-7.79995e-05
-7.80495e-05
-7.80828e-05
-7.80994e-05
-7.80994e-05
-7.80828e-05
-7.80494e-05
-7.79995e-05
-7.79332e-05
-7.78512e-05
-7.77541e-05
-7.76429e-05
-7.75189e-05
-7.73831e-05
-8.8381e-05
-8.85287e-05
-8.86637e-05
-8.87847e-05
-8.88906e-05
-8.89802e-05
-8.90527e-05
-8.91074e-05
-8.91441e-05
-8.91624e-05
-8.91624e-05
-8.91441e-05
-8.91074e-05
-8.90527e-05
-8.89802e-05
-8.88906e-05
-8.87847e-05
-8.86637e-05
-8.85287e-05
-8.8381e-05
-9.83809e-05
-9.85402e-05
-9.86859e-05
-9.88166e-05
-9.89313e-05
-9.90285e-05
-9.91072e-05
-9.91667e-05
-9.92066e-05
-9.92267e-05
-9.92267e-05
-9.92066e-05
-9.91667e-05
-9.91072e-05
-9.90285e-05
-9.89313e-05
-9.88166e-05
-9.86859e-05
-9.85402e-05
-9.83809e-05
-0.000107454
-0.000107624
-0.00010778
-0.00010792
-0.000108043
-0.000108147
-0.000108232
-0.000108296
-0.000108339
-0.00010836
-0.00010836
-0.000108339
-0.000108296
-0.000108232
-0.000108147
-0.000108043
-0.00010792
-0.00010778
-0.000107624
-0.000107454
-0.00011566
-0.00011584
-0.000116005
-0.000116154
-0.000116284
-0.000116394
-0.000116483
-0.000116551
-0.000116597
-0.00011662
-0.00011662
-0.000116597
-0.000116551
-0.000116483
-0.000116394
-0.000116284
-0.000116154
-0.000116005
-0.00011584
-0.00011566
-0.000123061
-0.000123249
-0.000123421
-0.000123575
-0.00012371
-0.000123824
-0.000123916
-0.000123987
-0.000124035
-0.000124058
-0.000124058
-0.000124035
-0.000123987
-0.000123916
-0.000123824
-0.00012371
-0.000123575
-0.000123421
-0.000123248
-0.000123061
-0.000129711
-0.000129904
-0.000130081
-0.000130237
-0.000130373
-0.000130488
-0.000130582
-0.000130654
-0.000130702
-0.000130726
-0.000130726
-0.000130702
-0.000130654
-0.000130582
-0.000130488
-0.000130373
-0.000130237
-0.000130081
-0.000129904
-0.000129711
-0.000135663
-0.000135858
-0.000136033
-0.000136187
-0.000136321
-0.000136435
-0.000136528
-0.000136599
-0.000136646
-0.000136669
-0.000136669
-0.000136646
-0.000136599
-0.000136528
-0.000136435
-0.000136321
-0.000136187
-0.000136033
-0.000135858
-0.000135663
-0.000140967
-0.000141156
-0.000141323
-0.00014147
-0.000141599
-0.000141708
-0.000141797
-0.000141865
-0.000141909
-0.00014193
-0.00014193
-0.000141909
-0.000141865
-0.000141797
-0.000141708
-0.000141599
-0.00014147
-0.000141323
-0.000141156
-0.000140967
-0.000145664
-0.000145839
-0.000145994
-0.00014613
-0.000146249
-0.000146349
-0.00014643
-0.000146492
-0.000146531
-0.000146549
-0.000146549
-0.000146531
-0.000146492
-0.00014643
-0.000146349
-0.000146249
-0.00014613
-0.000145994
-0.000145839
-0.000145664
-0.000149793
-0.000149948
-0.000150085
-0.000150204
-0.000150307
-0.000150394
-0.000150463
-0.000150515
-0.000150547
-0.00015056
-0.00015056
-0.000150547
-0.000150515
-0.000150463
-0.000150394
-0.000150307
-0.000150204
-0.000150085
-0.000149948
-0.000149793
-0.000153389
-0.000153518
-0.000153629
-0.000153725
-0.000153806
-0.000153873
-0.000153926
-0.000153964
-0.000153987
-0.000153993
-0.000153993
-0.000153987
-0.000153964
-0.000153926
-0.000153873
-0.000153806
-0.000153725
-0.000153629
-0.000153518
-0.000153389
-0.000156486
-0.000156579
-0.000156656
-0.000156719
-0.000156771
-0.000156812
-0.000156843
-0.000156865
-0.000156875
-0.000156873
-0.000156873
-0.000156875
-0.000156865
-0.000156843
-0.000156812
-0.000156771
-0.000156719
-0.000156656
-0.000156579
-0.000156486
-0.000159108
-0.000159155
-0.000159187
-0.000159208
-0.000159221
-0.000159229
-0.000159233
-0.000159233
-0.000159228
-0.000159217
-0.000159217
-0.000159228
-0.000159233
-0.000159233
-0.000159229
-0.000159221
-0.000159208
-0.000159187
-0.000159155
-0.000159108
-0.000161275
-0.000161261
-0.000161235
-0.000161203
-0.000161168
-0.000161135
-0.000161105
-0.000161079
-0.000161056
-0.000161034
-0.000161034
-0.000161056
-0.000161079
-0.000161105
-0.000161135
-0.000161168
-0.000161203
-0.000161235
-0.000161261
-0.000161275
-0.000162997
-0.000162905
-0.000162806
-0.000162707
-0.000162614
-0.00016253
-0.000162458
-0.000162401
-0.000162356
-0.000162323
-0.000162323
-0.000162356
-0.000162401
-0.000162458
-0.00016253
-0.000162614
-0.000162707
-0.000162806
-0.000162905
-0.000162997
-0.000164275
-0.000164087
-0.000163897
-0.000163715
-0.000163548
-0.000163403
-0.000163281
-0.000163186
-0.000163116
-0.00016307
-0.00016307
-0.000163116
-0.000163186
-0.000163281
-0.000163403
-0.000163548
-0.000163715
-0.000163897
-0.000164087
-0.000164275
-0.000165102
-0.000164793
-0.00016449
-0.000164206
-0.000163951
-0.000163731
-0.000163549
-0.000163409
-0.00016331
-0.000163249
-0.000163249
-0.00016331
-0.000163409
-0.000163549
-0.000163731
-0.000163951
-0.000164206
-0.00016449
-0.000164793
-0.000165102
-0.000165459
-0.000165
-0.000164558
-0.000164149
-0.000163786
-0.000163476
-0.000163222
-0.000163029
-0.000162895
-0.000162818
-0.000162818
-0.000162895
-0.000163029
-0.000163222
-0.000163476
-0.000163786
-0.000164149
-0.000164558
-0.000165
-0.000165459
-0.000165314
-0.00016467
-0.000164057
-0.000163497
-0.000163003
-0.000162585
-0.000162246
-0.00016199
-0.000161815
-0.000161719
-0.000161719
-0.000161815
-0.00016199
-0.000162246
-0.000162585
-0.000163003
-0.000163497
-0.000164057
-0.00016467
-0.000165314
-0.000164619
-0.000163749
-0.000162929
-0.000162186
-0.000161536
-0.000160989
-0.000160549
-0.000160219
-0.000159996
-0.000159878
-0.000159878
-0.000159996
-0.000160219
-0.000160549
-0.000160989
-0.000161536
-0.000162186
-0.000162929
-0.000163749
-0.000164619
-0.000163314
-0.000162169
-0.0001611
-0.000160138
-0.000159303
-0.000158604
-0.000158046
-0.000157628
-0.000157349
-0.000157206
-0.000157206
-0.000157349
-0.000157628
-0.000158046
-0.000158604
-0.000159303
-0.000160138
-0.0001611
-0.000162169
-0.000163315
-0.000161323
-0.000159846
-0.000158478
-0.000157258
-0.000156205
-0.00015533
-0.000154634
-0.000154116
-0.000153772
-0.000153598
-0.000153598
-0.000153772
-0.000154116
-0.000154634
-0.00015533
-0.000156205
-0.000157258
-0.000158478
-0.000159846
-0.000161323
-0.000158553
-0.000156679
-0.000154959
-0.000153436
-0.000152133
-0.000151057
-0.000150204
-0.000149572
-0.000149154
-0.000148945
-0.000148945
-0.000149154
-0.000149572
-0.000150204
-0.000151057
-0.000152134
-0.000153436
-0.000154959
-0.000156679
-0.000158553
-0.000154899
-0.000152554
-0.000150423
-0.000148554
-0.000146968
-0.000145665
-0.000144638
-0.000143878
-0.000143378
-0.00014313
-0.00014313
-0.000143378
-0.000143878
-0.000144638
-0.000145665
-0.000146968
-0.000148554
-0.000150423
-0.000152555
-0.000154899
-0.000150242
-0.000147348
-0.000144749
-0.000142494
-0.00014059
-0.000139034
-0.000137814
-0.000136916
-0.000136328
-0.000136038
-0.000136038
-0.000136328
-0.000136916
-0.000137814
-0.000139034
-0.00014059
-0.000142494
-0.000144749
-0.000147348
-0.000150242
-0.000144472
-0.000140959
-0.000137826
-0.000135124
-0.000132862
-0.000131031
-0.000129608
-0.000128569
-0.000127893
-0.000127566
-0.000127566
-0.000127893
-0.000128569
-0.000129608
-0.000131031
-0.000132862
-0.000135124
-0.000137826
-0.000140959
-0.000144472
-0.000137521
-0.000133265
-0.000129503
-0.000126296
-0.000123648
-0.000121532
-0.000119908
-0.000118735
-0.00011798
-0.00011762
-0.00011762
-0.00011798
-0.000118735
-0.000119908
-0.000121532
-0.000123648
-0.000126296
-0.000129503
-0.000133265
-0.000137521
-0.000129279
-0.00012412
-0.000119624
-0.000115862
-0.000112816
-0.000110426
-0.00010862
-0.000107332
-0.000106514
-0.000106132
-0.000106132
-0.000106514
-0.000107332
-0.00010862
-0.000110426
-0.000112816
-0.000115862