/*--------------------------------*- C++ -*----------------------------------*\
  =========                 |
  \\      /  F ield         | OpenFOAM: The Open Source CFD Toolbox
   \\    /   O peration     | Website:  https://openfoam.org
    \\  /    A nd           | Version:  6
     \\/     M anipulation  |
\*---------------------------------------------------------------------------*/
FoamFile
{
    version     2.0;
    format      ascii;
    class       surfaceScalarField;
    location    "20";
    object      phi;
}
// * * * * * * * * * * * * * * * * * * * * * * * * * * * * * * * * * * * * * //

dimensions      [0 3 -1 0 0 0 0];

internalField   nonuniform List<scalar> 
17340
(
-1.30352e-10
1.30345e-10
-1.03657e-10
-2.66943e-11
-7.21029e-11
-3.15544e-11
-5.70632e-11
-1.50396e-11
-5.31471e-11
-3.91613e-12
-5.51908e-11
2.04371e-12
-6.01933e-11
5.00245e-12
-6.68293e-11
6.63598e-12
-7.43941e-11
7.56491e-12
-8.24928e-11
8.09874e-12
-9.08758e-11
8.38289e-12
-9.93608e-11
8.48498e-12
-1.07794e-10
8.43305e-12
-1.16027e-10
8.23344e-12
-1.23908e-10
7.8809e-12
-1.31273e-10
7.36469e-12
-1.37943e-10
6.67065e-12
-1.43728e-10
5.78418e-12
-1.48422e-10
4.69434e-12
-1.51822e-10
3.39982e-12
-1.53739e-10
1.91689e-12
-1.54071e-10
3.31734e-13
-1.52228e-10
-1.84233e-12
-1.47871e-10
-4.35704e-12
-1.40687e-10
-7.18417e-12
-1.3044e-10
-1.02473e-11
-1.17062e-10
-1.33772e-11
-1.00738e-10
-1.63241e-11
-8.19339e-11
-1.88045e-11
-6.141e-11
-2.05238e-11
-4.01787e-11
-2.12314e-11
-1.93865e-11
-2.07922e-11
-4.30926e-13
-1.89556e-11
1.62389e-11
-1.66698e-11
3.00826e-11
-1.38438e-11
4.09971e-11
-1.09144e-11
4.98324e-11
-8.83539e-12
5.64887e-11
-6.65622e-12
6.09762e-11
-4.48754e-12
-2.60213e-12
6.35783e-11
5.70666e-11
7.32788e-11
-3.49723e-12
3.38689e-11
-5.22192e-11
1.71679e-11
-8.58228e-11
1.8564e-11
-1.12875e-10
2.31355e-11
-1.3743e-10
2.65996e-11
-1.61212e-10
2.87835e-11
-1.85018e-10
3.04426e-11
-2.09074e-10
3.16208e-11
-2.33306e-10
3.23311e-11
-2.57517e-10
3.25935e-11
-2.8145e-10
3.24179e-11
-3.04813e-10
3.17967e-11
-3.27284e-10
3.07046e-11
-3.48508e-10
2.91043e-11
-3.68096e-10
2.69531e-11
-3.85631e-10
2.42054e-11
-4.00666e-10
2.082e-11
-4.12742e-10
1.67696e-11
-4.21397e-10
1.2055e-11
-4.26187e-10
6.70682e-12
-4.26532e-10
6.77062e-13
-4.22236e-10
-6.13777e-12
-4.12524e-10
-1.40694e-11
-3.96779e-10
-2.29294e-11
-3.74627e-10
-3.23987e-11
-3.46025e-10
-4.19797e-11
-3.11347e-10
-5.10012e-11
-2.71439e-10
-5.87132e-11
-2.27599e-10
-6.4364e-11
-1.81493e-10
-6.73367e-11
-1.34957e-10
-6.73288e-11
-8.95896e-11
-6.43226e-11
-4.73622e-11
-5.88972e-11
-9.37069e-12
-5.18353e-11
2.3345e-11
-4.36302e-11
4.97721e-11
-3.52625e-11
7.04748e-11
-2.73589e-11
8.60524e-11
-2.00652e-11
-1.37113e-11
9.71615e-11
2.56068e-11
4.76716e-11
-1.85572e-11
7.80333e-11
-7.71658e-11
7.57764e-11
-1.29888e-10
7.12865e-11
-1.76392e-10
6.96391e-11
-2.19342e-10
6.95492e-11
-2.60614e-10
7.00559e-11
-3.0092e-10
7.07484e-11
-3.40535e-10
7.12364e-11
-3.79464e-10
7.12597e-11
-4.17534e-10
7.06641e-11
-4.54463e-10
6.93461e-11
-4.89884e-10
6.72178e-11
-5.23371e-10
6.41919e-11
-5.54447e-10
6.01798e-11
-5.82589e-10
5.50955e-11
-6.07242e-10
4.88579e-11
-6.27821e-10
4.13991e-11
-6.43729e-10
3.26784e-11
-6.54378e-10
2.27036e-11
-6.59204e-10
1.15323e-11
-6.57737e-10
-7.88979e-13
-6.49704e-10
-1.41709e-11
-6.34447e-10
-2.93271e-11
-6.11437e-10
-4.59388e-11
-5.80445e-10
-6.33906e-11
-5.41622e-10
-8.08035e-11
-4.95563e-10
-9.70598e-11
-4.43336e-10
-1.1094e-10
-3.86455e-10
-1.21246e-10
-3.26783e-10
-1.27008e-10
-2.66373e-10
-1.2774e-10
-2.07266e-10
-1.2343e-10
-1.51392e-10
-1.14771e-10
-1.00361e-10
-1.02866e-10
-5.50194e-11
-8.89718e-11
-1.57281e-11
-7.45537e-11
1.73887e-11
-6.04758e-11
4.45721e-11
-4.72487e-11
-3.53744e-11
6.62353e-11
-1.94734e-11
6.71452e-11
-6.24104e-11
1.2097e-10
-1.18562e-10
1.31928e-10
-1.77777e-10
1.30501e-10
-2.35935e-10
1.27798e-10
-2.92421e-10
1.26036e-10
-3.47428e-10
1.25063e-10
-4.01034e-10
1.24354e-10
-4.53221e-10
1.23423e-10
-5.03862e-10
1.219e-10
-5.52719e-10
1.19521e-10
-5.99459e-10
1.16086e-10
-6.43669e-10
1.11428e-10
-6.84875e-10
1.05398e-10
-7.22551e-10
9.78556e-11
-7.56135e-10
8.86798e-11
-7.85042e-10
7.77647e-11
-8.08675e-10
6.50319e-11
-8.26445e-10
5.04486e-11
-8.37794e-10
3.4053e-11
-8.42229e-10
1.59671e-11
-8.39356e-10
-3.66156e-12
-8.28584e-10
-2.49432e-11
-8.09521e-10
-4.83902e-11
-7.81874e-10
-7.35857e-11
-7.45612e-10
-9.96529e-11
-7.01043e-10
-1.25373e-10
-6.48872e-10
-1.4923e-10
-5.90222e-10
-1.6959e-10
-5.2661e-10
-1.84858e-10
-4.59877e-10
-1.93741e-10
-3.92047e-10
-1.95569e-10
-3.2517e-10
-1.90307e-10
-2.61112e-10
-1.7883e-10
-2.01414e-10
-1.62564e-10
-1.47111e-10
-1.43275e-10
-9.8818e-11
-1.22846e-10
-5.67369e-11
-1.02557e-10
-2.07475e-11
-8.3238e-11
-6.54102e-11
9.28823e-12
-3.1223e-11
9.83681e-11
-8.33045e-11
1.73052e-10
-1.46305e-10
1.94929e-10
-2.13655e-10
1.97851e-10
-2.81644e-10
1.95786e-10
-3.48685e-10
1.93078e-10
-4.14161e-10
1.90538e-10
-4.77753e-10
1.87947e-10
-5.39228e-10
1.84899e-10
-5.98337e-10
1.81009e-10
-6.54776e-10
1.7596e-10
-7.08175e-10
1.69485e-10
-7.58107e-10
1.6136e-10
-8.04095e-10
1.51385e-10
-8.45624e-10
1.39385e-10
-8.82157e-10
1.25213e-10
-9.13149e-10
1.08756e-10
-9.38056e-10
8.99394e-11
-9.5636e-10
6.87524e-11
-9.67578e-10
4.52713e-11
-9.71275e-10
1.96638e-11
-9.67029e-10
-7.90713e-12
-9.54248e-10
-3.77243e-11
-9.32642e-10
-6.99966e-11
-9.02098e-10
-1.0413e-10
-8.62722e-10
-1.39029e-10
-8.14903e-10
-1.73191e-10
-7.59374e-10
-2.04759e-10
-6.97239e-10
-2.31725e-10
-6.29967e-10
-2.5213e-10
-5.59346e-10
-2.64362e-10
-4.87346e-10
-2.67569e-10
-4.15984e-10
-2.61669e-10
-3.47115e-10
-2.47698e-10
-2.8229e-10
-2.27389e-10
-2.22648e-10
-2.02917e-10
-1.68895e-10
-1.76599e-10
-1.2136e-10
-1.50092e-10
-8.00964e-11
-1.24501e-10
-1.00522e-10
-4.49842e-11
-3.28806e-11
1.31249e-10
-9.24301e-11
2.32601e-10
-1.63058e-10
2.65557e-10
-2.37788e-10
2.72581e-10
-3.13201e-10
2.71198e-10
-3.87594e-10
2.67471e-10
-4.60102e-10
2.63046e-10
-5.30219e-10
2.58064e-10
-5.97577e-10
2.52256e-10
-6.61839e-10
2.45272e-10
-7.22656e-10
2.36776e-10
-7.79643e-10
2.26472e-10
-8.32381e-10
2.14098e-10
-8.80419e-10
1.99424e-10
-9.23289e-10
1.82254e-10
-9.60507e-10
1.62431e-10
-9.91591e-10
1.39841e-10
-1.01607e-09
1.1442e-10
-1.0335e-09
8.61775e-11
-1.04344e-09
5.52194e-11
-1.04552e-09
2.17355e-11
-1.03931e-09
-1.41103e-11
-1.02435e-09
-5.26921e-11
-1.00039e-09
-9.39547e-11
-9.67407e-10
-1.3711e-10
-9.25568e-10
-1.80868e-10
-8.75279e-10
-2.2348e-10
-8.17267e-10
-2.62772e-10
-7.52614e-10
-2.96379e-10
-6.82775e-10
-3.21968e-10
-6.09545e-10
-3.37591e-10
-5.34928e-10
-3.42186e-10
-4.61001e-10
-3.35596e-10
-3.89688e-10
-3.19012e-10
-3.22604e-10
-2.94473e-10
-2.60945e-10
-2.64577e-10
-2.05417e-10
-2.32127e-10
-1.56351e-10
-1.99158e-10
-1.13779e-10
-1.67073e-10
-1.36792e-10
-7.75099e-11
-3.40918e-11
1.65341e-10
-9.72237e-11
2.95733e-10
-1.72011e-10
3.40344e-10
-2.50912e-10
3.51483e-10
-3.3038e-10
3.50667e-10
-4.08621e-10
3.45712e-10
-4.84645e-10
3.39071e-10
-5.57836e-10
3.31255e-10
-6.27736e-10
3.22156e-10
-6.93952e-10
3.11488e-10
-7.56106e-10
2.98931e-10
-8.13815e-10
2.84182e-10
-8.66685e-10
2.66968e-10
-9.14309e-10
2.47048e-10
-9.56274e-10
2.24219e-10
-9.92165e-10
1.98322e-10
-1.02157e-09
1.69247e-10
-1.04409e-09
1.36942e-10
-1.05935e-09
1.01432e-10
-1.06697e-09
6.28373e-11
-1.06659e-09
2.13568e-11
-1.05785e-09
-2.2851e-11
-1.0403e-09
-7.02432e-11
-1.01376e-09
-1.20493e-10
-9.78225e-10
-1.72643e-10
-9.33867e-10
-2.25225e-10
-8.81081e-10
-2.76266e-10
-8.20577e-10
-3.23276e-10
-7.5344e-10
-3.63515e-10
-6.81164e-10
-3.94245e-10
-6.05631e-10
-4.13125e-10
-5.28976e-10
-4.18841e-10
-4.53443e-10
-4.11129e-10
-3.81111e-10
-3.91344e-10
-3.13719e-10
-3.61864e-10
-2.52533e-10
-3.25764e-10
-1.98213e-10
-2.86447e-10
-1.50998e-10
-2.46373e-10
-1.10789e-10
-2.07282e-10
-1.70397e-10
-7.71835e-11
-3.43934e-11
1.99734e-10
-9.80267e-11
3.59367e-10
-1.7352e-10
4.15837e-10
-2.53173e-10
4.31136e-10
-3.33315e-10
4.30809e-10
-4.12055e-10
4.24451e-10
-4.88317e-10
4.15333e-10
-5.61408e-10
4.04346e-10
-6.30816e-10
3.91565e-10
-6.96115e-10
3.76786e-10
-7.56914e-10
3.59731e-10
-8.12845e-10
3.40113e-10
-8.63545e-10
3.17668e-10
-9.08657e-10
2.92159e-10
-9.47826e-10
2.63387e-10
-9.80704e-10
2.312e-10
-1.00695e-09
1.95494e-10
-1.02623e-09
1.56226e-10
-1.03823e-09
1.1343e-10
-1.04262e-09
6.72211e-11
-1.03904e-09
1.77845e-11
-1.02715e-09
-3.47468e-11
-1.00649e-09
-9.08957e-11
-9.76918e-10
-1.5007e-10
-9.38398e-10
-2.11163e-10
-8.91078e-10
-2.72545e-10
-8.35328e-10
-3.32016e-10
-7.71852e-10
-3.86752e-10
-7.01769e-10
-4.33598e-10
-6.26664e-10
-4.6935e-10
-5.48579e-10
-4.9121e-10
-4.69872e-10
-4.97548e-10
-3.9305e-10
-4.87951e-10
-3.20425e-10
-4.63969e-10
-2.5392e-10
-4.28369e-10
-1.94925e-10
-3.84758e-10
-1.44023e-10
-3.37349e-10
-1.01321e-10
-2.89075e-10
-6.65366e-11
-2.42066e-10
-1.97964e-10
-3.89696e-11
-3.31921e-11
2.32926e-10
-9.47719e-11
4.20947e-10
-1.68032e-10
4.89097e-10
-2.45402e-10
5.08506e-10
-3.23192e-10
5.08599e-10
-3.99461e-10
5.00721e-10
-4.73083e-10
4.88954e-10
-5.4332e-10
4.74583e-10
-6.09627e-10
4.57873e-10
-6.71563e-10
4.38722e-10
-7.28742e-10
4.16909e-10
-7.80812e-10
3.92183e-10
-8.27445e-10
3.64301e-10
-8.68332e-10
3.33046e-10
-9.03171e-10
2.98227e-10
-9.31675e-10
2.59703e-10
-9.5356e-10
2.17379e-10
-9.68552e-10
1.71218e-10
-9.76378e-10
1.21255e-10
-9.76737e-10
6.75808e-11
-9.69269e-10
1.03164e-11
-9.53543e-10
-5.04729e-11
-9.29167e-10
-1.15272e-10
-8.95947e-10
-1.8329e-10
-8.53817e-10
-2.53293e-10
-8.02873e-10
-3.23489e-10
-7.43461e-10
-3.91428e-10
-6.76293e-10
-4.5392e-10
-6.02554e-10
-5.07337e-10
-5.23974e-10
-5.4793e-10
-4.42809e-10
-5.72375e-10
-3.6172e-10
-5.78636e-10
-2.83559e-10
-5.66113e-10
-2.10924e-10
-5.36604e-10
-1.45943e-10
-4.93351e-10
-9.02043e-11
-4.40497e-10
-4.42306e-11
-3.83323e-10
-8.01372e-12
-3.25292e-10
1.90005e-11
-2.6908e-10
-2.16697e-10
3.77334e-11
-3.06783e-11
2.63604e-10
-8.799e-11
4.78258e-10
-1.56485e-10
5.57592e-10
-2.28965e-10
5.80986e-10
-3.01822e-10
5.81455e-10
-3.73112e-10
5.72011e-10
-4.41685e-10
5.57528e-10
-5.06783e-10
5.39681e-10
-5.67847e-10
5.18937e-10
-6.24434e-10
4.95309e-10
-6.76166e-10
4.68641e-10
-7.22715e-10
4.38732e-10
-7.63787e-10
4.05373e-10
-7.9911e-10
3.68369e-10
-8.2843e-10
3.27547e-10
-8.51502e-10
2.82775e-10
-8.68086e-10
2.33963e-10
-8.77942e-10
1.81074e-10
-8.80829e-10
1.24142e-10
-8.76474e-10
6.32265e-11
-8.6449e-10
-1.6684e-12
-8.44278e-10
-7.06848e-11
-8.15531e-10
-1.44018e-10
-7.77994e-10
-2.20827e-10
-7.31534e-10
-2.99754e-10
-6.76192e-10
-3.78831e-10
-6.1231e-10
-4.55309e-10
-5.40628e-10
-5.25602e-10
-4.62435e-10
-5.8553e-10
-3.79671e-10
-6.30694e-10
-2.94829e-10
-6.57217e-10
-2.10949e-10
-6.62517e-10
-1.31256e-10
-6.45806e-10
-5.86667e-11
-6.09193e-10
4.52743e-12
-5.56545e-10
5.65946e-11
-4.92564e-10
9.66215e-11
-4.2335e-10
1.2487e-10
-3.53541e-10
1.423e-10
-2.86511e-10
-2.24548e-10
1.50151e-10
-2.71476e-11
2.90752e-10
-7.83819e-11
5.29493e-10
-1.40033e-10
6.19243e-10
-2.05492e-10
6.46445e-10
-2.71324e-10
6.47287e-10
-3.3562e-10
6.36307e-10
-3.9723e-10
6.19138e-10
-4.55391e-10
5.97841e-10
-5.09543e-10
5.73089e-10
-5.59248e-10
5.45014e-10
-6.04144e-10
5.13538e-10
-6.43926e-10
4.78513e-10
-6.78325e-10
4.39772e-10
-7.07102e-10
3.97147e-10
-7.30036e-10
3.50481e-10
-7.46911e-10
2.99649e-10
-7.57505e-10
2.44557e-10
-7.61584e-10
1.85153e-10
-7.58884e-10
1.21441e-10
-7.49113e-10
5.34562e-11
-7.32001e-10
-1.87803e-11
-7.06781e-10
-9.59056e-11
-6.73021e-10
-1.77778e-10
-6.30436e-10
-2.63412e-10
-5.7885e-10
-3.5134e-10
-5.18238e-10
-4.39443e-10
-4.49015e-10
-5.24532e-10
-3.71965e-10
-6.02652e-10
-2.88521e-10
-6.68974e-10
-2.00947e-10
-7.18268e-10
-1.1196e-10
-7.46204e-10
-2.49119e-11
-7.49565e-10
5.66003e-11
-7.27318e-10
1.29046e-10
-6.8164e-10
1.89888e-10
-6.17387e-10
2.3777e-10
-5.40445e-10
2.71673e-10
-4.57253e-10
2.91647e-10
-3.73515e-10
2.98662e-10
-2.93526e-10
-2.20153e-10
2.94267e-10
-2.28771e-11
3.13629e-10
-6.66861e-11
5.73301e-10
-1.19919e-10
6.72476e-10
-1.76736e-10
7.03263e-10
-2.33954e-10
7.04504e-10
-2.89738e-10
6.92091e-10
-3.42958e-10
6.72358e-10
-3.92857e-10
6.4774e-10
-4.38882e-10
6.19115e-10
-4.80608e-10
5.86739e-10
-5.17687e-10
5.50618e-10
-5.49833e-10
5.10659e-10
-5.76799e-10
4.66738e-10
-5.98368e-10
4.18716e-10
-6.14338e-10
3.66451e-10
-6.24505e-10
3.09817e-10
-6.28652e-10
2.48704e-10
-6.26528e-10
1.83029e-10
-6.1782e-10
1.12734e-10
-6.02166e-10
3.78018e-11
-5.79224e-10
-4.17221e-11
-5.48219e-10
-1.2691e-10
-5.08623e-10
-2.17374e-10
-4.6011e-10
-3.11925e-10
-4.02491e-10
-4.0896e-10
-3.356e-10
-5.06333e-10
-2.60109e-10
-6.00024e-10
-1.76914e-10
-6.85847e-10
-8.75831e-11
-7.58304e-10
5.43218e-12
-8.11283e-10
9.86814e-11
-8.39453e-10
1.88237e-10
-8.3912e-10
2.70928e-10
-8.1001e-10
3.43517e-10
-7.54228e-10
4.02945e-10
-6.76815e-10
4.47134e-10
-5.84634e-10
4.74949e-10
-4.85068e-10
4.86379e-10
-3.84945e-10
4.8244e-10
-2.89587e-10
-2.02639e-10
4.64926e-10
-1.8149e-11
3.31778e-10
-5.36551e-11
6.08808e-10
-9.7406e-11
7.16227e-10
-1.44463e-10
7.5032e-10
-1.91968e-10
7.52008e-10
-2.38198e-10
7.38321e-10
-2.82059e-10
7.1622e-10
-3.22812e-10
6.88492e-10
-3.59916e-10
6.56218e-10
-3.92957e-10
6.1978e-10
-4.21603e-10
5.79264e-10
-4.45579e-10
5.34636e-10
-4.64652e-10
4.8581e-10
-4.78612e-10
4.32676e-10
-4.8726e-10
3.75099e-10
-4.90389e-10
3.12946e-10
-4.8776e-10
2.46075e-10
-4.79076e-10
1.74345e-10
-4.63946e-10
9.7604e-11
-4.41859e-10
1.57145e-11
-4.12307e-10
-7.12742e-11
-3.7467e-10
-1.64546e-10
-3.2821e-10
-2.63835e-10
-2.72664e-10
-3.6747e-10
-2.07964e-10
-4.73659e-10
-1.33763e-10
-5.80535e-10
-5.10042e-11
-6.82783e-10
3.90272e-11
-7.75879e-10
1.34071e-10
-8.53348e-10
2.31367e-10
-9.08578e-10
3.28082e-10
-9.36168e-10
4.20957e-10
-9.31996e-10
5.06052e-10
-8.95104e-10
5.79504e-10
-8.27681e-10
6.37844e-10
-7.35155e-10
6.7853e-10
-6.25321e-10
7.00241e-10
-5.06779e-10
7.02921e-10
-3.87625e-10
6.87658e-10
-2.74324e-10
-1.71445e-10
6.56464e-10
-1.32385e-11
3.45016e-10
-4.00147e-11
6.35584e-10
-7.37035e-11
7.49915e-10
-1.10359e-10
7.86975e-10
-1.47511e-10
7.8916e-10
-1.83583e-10
7.74393e-10
-2.17538e-10
7.50175e-10
-2.48657e-10
7.19612e-10
-2.76417e-10
6.83978e-10
-3.00414e-10
6.43777e-10
-3.20324e-10
5.99174e-10
-3.35878e-10
5.5019e-10
-3.46839e-10
4.96771e-10
-3.52985e-10
4.38822e-10
-3.54103e-10
3.76216e-10
-3.49953e-10
3.08796e-10
-3.40237e-10
2.36359e-10
-3.24545e-10
1.58653e-10
-3.02301e-10
7.53598e-11
-2.73021e-10
-1.3566e-11
-2.35992e-10
-1.08303e-10
-1.90699e-10
-2.09839e-10
-1.36179e-10
-3.18354e-10
-7.23596e-11
-4.3129e-10
9.22457e-13
-5.46942e-10
8.2949e-11
-6.62562e-10
1.72551e-10
-7.72385e-10
2.68337e-10
-8.71664e-10
3.68608e-10
-9.53619e-10
4.71126e-10
-1.0111e-09
5.72704e-10
-1.03775e-09
6.69601e-10
-1.02889e-09
7.57484e-10
-9.82988e-10
8.31989e-10
-9.02185e-10
8.89223e-10
-7.92389e-10
9.26291e-10
-6.62389e-10
9.41674e-10
-5.22163e-10
9.35282e-10
-3.81233e-10
9.08301e-10
-2.47343e-10
-1.26138e-10
8.62995e-10
-8.39566e-12
3.53412e-10
-2.6424e-11
6.53612e-10
-4.99148e-11
7.73406e-10
-7.59636e-11
8.13024e-10
-1.0254e-10
8.15737e-10
-1.28249e-10
8.00102e-10
-1.52123e-10
7.74049e-10
-1.73475e-10
7.40963e-10
-1.91792e-10
7.02295e-10
-2.06677e-10
6.58661e-10
-2.17806e-10
6.10303e-10
-2.24904e-10
5.57288e-10
-2.27714e-10
4.99581e-10
-2.25963e-10
4.37071e-10
-2.19404e-10
3.69657e-10
-2.07732e-10
2.97124e-10
-1.90547e-10
2.19175e-10
-1.67281e-10
1.35386e-10
-1.37002e-10
4.5081e-11
-9.93881e-11
-5.11797e-11
-5.36416e-11
-1.5405e-10
9.92413e-13
-2.64473e-10
6.46957e-11
-3.82058e-10
1.37381e-10
-5.03976e-10
2.18822e-10
-6.28382e-10
3.08059e-10
-7.51798e-10
4.04732e-10
-8.69058e-10
5.07396e-10
-9.74328e-10
6.14212e-10
-1.06044e-09
7.22726e-10
-1.11961e-09
8.29581e-10
-1.1446e-09
9.30656e-10
-1.12997e-09
1.02125e-09
-1.07358e-09
1.09656e-09
-9.77497e-10
1.15231e-09
-8.48139e-10
1.18529e-09
-6.95371e-10
1.19381e-09
-5.3068e-10
1.17775e-09
-3.65177e-10
1.13847e-09
-2.08059e-10
-6.61385e-11
1.07847e-09
-3.83671e-12
3.57249e-10
-1.34518e-11
6.63227e-10
-2.69979e-11
7.86952e-10
-4.26239e-11
8.2865e-10
-5.87781e-11
8.31891e-10
-7.42716e-11
8.15595e-10
-8.8223e-11
7.88001e-10
-9.99758e-11
7.52716e-10
-1.09025e-10
7.11345e-10
-1.14967e-10
6.64603e-10
-1.17463e-10
6.12799e-10
-1.16211e-10
5.56036e-10
-1.10919e-10
4.94289e-10
-1.0121e-10
4.27363e-10
-8.67843e-11
3.55231e-10
-6.72104e-11
2.7755e-10
-4.19108e-11
1.93875e-10
-1.01015e-11
1.03577e-10
2.9219e-11
5.7605e-12
7.65105e-11
-9.84713e-11
1.32205e-10
-2.09745e-10
1.96689e-10
-3.28956e-10
2.69773e-10
-4.55142e-10
3.51773e-10
-5.85976e-10
4.42224e-10
-7.18834e-10
5.40307e-10
-8.49882e-10
6.45233e-10
-9.73984e-10
7.5561e-10
-1.08471e-09
8.69489e-10
-1.17431e-09
9.84209e-10
-1.23433e-09
1.09622e-09
-1.25661e-09
1.20113e-09
-1.23487e-09
1.29388e-09
-1.16633e-09
1.36932e-09
-1.05294e-09
1.42281e-09
-9.01623e-10
1.45085e-09
-7.23416e-10
1.45161e-09
-5.31437e-10
1.42496e-09
-3.38527e-10
1.37231e-09
-1.55406e-10
1.02361e-11
1.29593e-09
2.79238e-13
3.56969e-10
-1.54959e-12
6.65056e-10
-5.73434e-12
7.91137e-10
-1.14635e-11
8.34379e-10
-1.76799e-11
8.38107e-10
-2.34178e-11
8.21333e-10
-2.78888e-11
7.92472e-10
-3.04658e-11
7.55293e-10
-3.0641e-11
7.1152e-10
-2.79862e-11
6.61948e-10
-2.21185e-11
6.06931e-10
-1.26683e-11
5.46586e-10
7.54091e-13
4.80867e-10
1.85574e-11
4.0956e-10
4.12026e-11
3.32586e-10
6.92988e-11
2.49453e-10
1.03667e-10
1.59507e-10
1.4531e-10
6.19342e-11
1.9453e-10
-4.34596e-11
2.52011e-10
-1.55953e-10
3.18475e-10
-2.76209e-10
3.93977e-10
-4.04458e-10
4.78267e-10
-5.39432e-10
5.71146e-10
-6.78855e-10
6.72012e-10
-8.19699e-10
7.79985e-10
-9.57854e-10
8.93967e-10
-1.08797e-09
1.01245e-09
-1.20319e-09
1.13339e-09
-1.29525e-09
1.25399e-09
-1.35493e-09
1.37054e-09
-1.37316e-09
1.47842e-09
-1.34275e-09
1.57232e-09
-1.26024e-09
1.64676e-09
-1.12737e-09
1.69676e-09
-9.51628e-10
1.71862e-09
-7.45272e-10
1.71036e-09
-5.23175e-10
1.67195e-09
-3.0012e-10
1.60507e-09
-8.8529e-11
1.03806e-10
1.5115e-09
3.91456e-12
3.53055e-10
9.02764e-12
6.59943e-10
1.33109e-11
7.86854e-10
1.6637e-11
8.31053e-10
1.95801e-11
8.35164e-10
2.28731e-11
8.1804e-10
2.7207e-11
7.88138e-10
3.31843e-11
7.49316e-10
4.13308e-11
7.03373e-10
5.2121e-11
6.51158e-10
6.60074e-11
5.93045e-10
8.34465e-11
5.29147e-10
1.04917e-10
4.59396e-10
1.309e-10
3.83577e-10
1.6209e-10
3.01396e-10
1.99278e-10
2.12265e-10
2.43436e-10
1.15349e-10
2.95821e-10
9.54876e-12
3.56721e-10
-1.04359e-10
4.26575e-10
-2.25807e-10
5.05823e-10
-3.55456e-10
5.94313e-10
-4.92949e-10
6.91551e-10
-6.3667e-10
7.96864e-10
-7.84168e-10
9.09346e-10
-9.32181e-10
1.0279e-09
-1.07641e-09
1.15122e-09
-1.21129e-09
1.27768e-09
-1.32965e-09
1.40514e-09
-1.42271e-09
1.53073e-09
-1.48052e-09
1.65067e-09
-1.4931e-09
1.76016e-09
-1.45225e-09
1.85368e-09
-1.35376e-09
1.92548e-09
-1.19917e-09
1.97034e-09
-9.96488e-10
1.98433e-09
-7.59266e-10
1.96537e-09
-5.04209e-10
1.91325e-09
-2.48007e-10
1.82927e-09
-4.53975e-12
2.15388e-10
1.71768e-09
7.06871e-12
3.45986e-10
1.81664e-11
6.48845e-10
2.97909e-11
7.75229e-10
4.10542e-11
8.1979e-10
5.21025e-11
8.24116e-10
6.34448e-11
8.06698e-10
7.5675e-11
7.75907e-10
8.93772e-11
7.35614e-10
1.05109e-10
6.87641e-10
1.23415e-10
6.32852e-10
1.44845e-10
5.71615e-10
1.69979e-10
5.04013e-10
1.99446e-10
4.2993e-10
2.33953e-10
3.49069e-10
2.74417e-10
2.60932e-10
3.21973e-10
1.64708e-10
3.78012e-10
5.93112e-11
4.43188e-10
-5.56273e-11
5.17713e-10
-1.78885e-10
6.02215e-10
-3.10309e-10
6.96592e-10
-4.49834e-10
8.00191e-10
-5.96547e-10
9.12044e-10
-7.48524e-10
1.031e-09
-9.03128e-10
1.15581e-09
-1.05698e-09
1.2851e-09
-1.20571e-09
1.41744e-09
-1.34362e-09
1.5511e-09
-1.46332e-09
1.68395e-09
-1.55556e-09
1.81309e-09
-1.60967e-09
1.9347e-09
-1.6147e-09
2.0439e-09
-1.56145e-09
2.135e-09
-1.44486e-09
2.20206e-09
-1.26623e-09
2.23964e-09
-1.03407e-09
2.24372e-09
-7.63344e-10
2.21228e-09
-4.72765e-10
2.14544e-09
-1.81165e-10
2.04336e-09
9.75327e-11
3.4721e-10
1.91154e-09
9.69035e-12
3.36296e-10
2.57362e-11
6.32799e-10
4.34341e-11
7.57531e-10
6.1309e-11
8.01915e-10
7.91701e-11
8.06255e-10
9.73418e-11
7.88526e-10
1.16341e-10
7.56908e-10
1.36755e-10
7.152e-10
1.59204e-10
6.65193e-10
1.84339e-10
6.07717e-10
2.12863e-10
5.43091e-10
2.45549e-10
4.71328e-10
2.83267e-10
3.92211e-10
3.27036e-10
3.05301e-10
3.78097e-10
2.09871e-10
4.37942e-10
1.04863e-10
5.08222e-10
-1.09679e-11
5.89028e-10
-1.36434e-10
6.80418e-10
-2.70275e-10
7.82444e-10
-4.12334e-10
8.94403e-10
-5.61794e-10
1.01501e-09
-7.17159e-10
1.14274e-09
-8.7625e-10
1.27596e-09
-1.03635e-09
1.41308e-09
-1.1941e-09
1.55256e-09
-1.34519e-09
1.69287e-09
-1.48392e-09
1.8323e-09
-1.60275e-09
1.96876e-09
-1.69202e-09
2.09943e-09
-1.74033e-09
2.22047e-09
-1.73574e-09
2.32696e-09
-1.66794e-09
2.4131e-09
-1.531e-09
2.4728e-09
-1.32593e-09
2.5005e-09
-1.06177e-09
2.49204e-09
-7.54886e-10
2.44527e-09
-4.25997e-10
2.36009e-09
-9.59781e-11
2.23839e-09
2.1923e-10
4.99826e-10
2.08577e-09
1.17354e-11
3.2456e-10
3.16113e-11
6.12923e-10
5.40022e-11
7.3514e-10
7.70109e-11
7.78906e-10
1.00213e-10
7.83052e-10
1.23813e-10
7.64927e-10
1.48296e-10
7.32425e-10
1.74294e-10
6.89201e-10
2.02544e-10
6.36943e-10
2.33875e-10
5.76386e-10
2.69227e-10
5.07738e-10
3.09672e-10
4.30883e-10
3.56444e-10
3.45438e-10
4.10998e-10
2.50748e-10
4.75087e-10
1.45781e-10
5.50853e-10
2.9097e-11
6.38755e-10
-9.88698e-11
7.38389e-10
-2.36068e-10
8.49819e-10
-3.81705e-10
9.72141e-10
-5.34655e-10
1.10375e-09
-6.93407e-10
1.24265e-09
-8.56052e-10
1.38671e-09
-1.02031e-09
1.53393e-09
-1.18357e-09
1.68248e-09
-1.34265e-09
1.83074e-09
-1.49345e-09
1.9772e-09
-1.63038e-09
2.12027e-09
-1.74582e-09
2.25796e-09
-1.82972e-09
2.38756e-09
-1.86993e-09
2.50528e-09
-1.85346e-09
2.60617e-09
-1.76883e-09
2.68437e-09
-1.6092e-09
2.73368e-09
-1.37524e-09
2.74852e-09
-1.07661e-09
2.72472e-09
-7.31086e-10
2.66009e-09
-3.61367e-10
2.55375e-09
1.03568e-11
2.4102e-09
3.62782e-10
6.74837e-10
2.23519e-09
1.31738e-11
3.11387e-10
3.56948e-11
5.90402e-10
6.13065e-11
7.09529e-10
8.78576e-11
7.52355e-10
1.14805e-10
7.56105e-10
1.42315e-10
7.37417e-10
1.70913e-10
7.03827e-10
2.01354e-10
6.5876e-10
2.34574e-10
6.03723e-10
2.71689e-10
5.39271e-10
3.14005e-10
4.65423e-10
3.63037e-10
3.8185e-10
4.20548e-10
2.87927e-10
4.88615e-10
1.82681e-10
5.69716e-10
6.46808e-11
6.65231e-10
-6.6419e-11
7.74547e-10
-2.08185e-10
8.97181e-10
-3.58702e-10
1.03192e-09
-5.16446e-10
1.17679e-09
-6.79521e-10
1.32927e-09
-8.45888e-10
1.48668e-09
-1.01347e-09
1.64647e-09
-1.1801e-09
1.80637e-09
-1.34347e-09
1.96448e-09
-1.50076e-09
2.11924e-09
-1.64821e-09
2.26928e-09
-1.78043e-09
2.41319e-09
-1.88973e-09
2.54918e-09
-1.96571e-09
2.67464e-09
-1.9954e-09
2.78586e-09
-1.96467e-09
2.87785e-09
-1.86082e-09
2.9447e-09
-1.67604e-09
2.98017e-09
-1.41072e-09
2.97873e-09
-1.07516e-09
2.93643e-09
-6.8879e-10
2.85149e-09
-2.76424e-10
2.72203e-09
1.39815e-10
2.55374e-09
5.31068e-10
8.74343e-10
2.35424e-09
1.39879e-11
2.97399e-10
3.79224e-11
5.66468e-10
6.52188e-11
6.82232e-10
9.36493e-11
7.23924e-10
1.2268e-10
7.27074e-10
1.52547e-10
7.0755e-10
1.83919e-10
6.72455e-10
2.17784e-10
6.24896e-10
2.55415e-10
5.66092e-10
2.98368e-10
4.96318e-10
3.48495e-10
4.15296e-10
4.07956e-10
3.22389e-10
4.7925e-10
2.16633e-10
5.65274e-10
9.66566e-11
6.68518e-10
-3.85628e-11
7.88431e-10
-1.86332e-10
9.23731e-10
-3.43485e-10
1.07283e-09
-5.07805e-10
1.23317e-09
-6.76785e-10
1.40162e-09
-8.47964e-10
1.57485e-09
-1.01912e-09
1.74969e-09
-1.18831e-09
1.92336e-09
-1.35376e-09
2.09352e-09
-1.51363e-09
2.25839e-09
-1.66562e-09
2.41658e-09
-1.8064e-09
2.56697e-09
-1.93081e-09
2.70839e-09
-2.03116e-09
2.83927e-09
-2.09658e-09
2.95713e-09
-2.11326e-09
3.05829e-09
-2.06584e-09
3.13775e-09
-1.94028e-09
3.18949e-09
-1.72779e-09
3.2073e-09
-1.42852e-09
3.18567e-09
-1.05353e-09
3.1207e-09
-6.23828e-10
3.01037e-09
-1.66089e-10
2.85481e-09
2.9537e-10
2.66018e-09
7.25701e-10
1.09941e-09
2.43512e-09
1.41709e-11
2.83228e-10
3.82645e-11
5.42374e-10
6.56827e-11
6.54814e-10
9.43134e-11
6.95294e-10
1.2378e-10
6.97608e-10
1.54523e-10
6.76807e-10
1.87502e-10
6.39476e-10
2.24101e-10
5.88296e-10
2.66123e-10
5.24071e-10
3.15787e-10
4.46653e-10
3.75738e-10
3.55345e-10
4.49037e-10
2.4909e-10
5.39146e-10
1.26524e-10
6.49723e-10
-1.39208e-11
7.80532e-10
-1.69372e-10
9.29531e-10
-3.35331e-10
1.0946e-09
-5.08552e-10
1.27242e-09
-6.8563e-10
1.45908e-09
-8.6344e-10
1.65049e-09
-1.03937e-09
1.8428e-09
-1.21143e-09
2.03261e-09
-1.37812e-09
2.21712e-09
-1.53828e-09
2.39418e-09
-1.69069e-09
2.5622e-09
-1.83365e-09
2.72012e-09
-1.96431e-09
2.86712e-09
-2.07781e-09
3.00231e-09
-2.16635e-09
3.12433e-09
-2.2186e-09
3.23083e-09
-2.21976e-09
3.31813e-09
-2.15313e-09
3.38113e-09
-2.00328e-09
3.41375e-09
-1.76041e-09
3.40979e-09
-1.42456e-09
3.36395e-09
-1.00768e-09
3.2725e-09
-5.3238e-10
3.13221e-09
-2.57967e-11
2.94668e-09
4.80893e-10
2.72283e-09
9.49558e-10
1.35165e-09
2.47059e-09
1.37272e-11
2.69501e-10
3.6734e-11
5.19368e-10
6.27366e-11
6.28812e-10
8.99497e-11
6.68081e-10
1.18329e-10
6.69229e-10
1.487e-10
6.46436e-10
1.82507e-10
6.05669e-10
2.21767e-10
5.49036e-10
2.6908e-10
4.76757e-10
3.27637e-10
3.88097e-10
4.01189e-10
2.81793e-10
4.94006e-10
1.56273e-10
6.10849e-10
9.68093e-12
7.52186e-10
-1.55258e-10
9.1534e-10
-3.32526e-10
1.0975e-09
-5.1749e-10
1.29444e-09
-7.05492e-10
1.50127e-09
-8.92459e-10
1.71301e-09
-1.07518e-09
1.92503e-09
-1.25139e-09
2.13327e-09
-1.41967e-09
2.33438e-09
-1.57924e-09
2.52579e-09
-1.72969e-09
2.70563e-09
-1.87052e-09
2.87267e-09
-2.0007e-09
3.0262e-09
-2.11784e-09
3.16573e-09
-2.21734e-09
3.29068e-09
-2.2913e-09
3.39989e-09
-2.3278e-09
3.49107e-09
-2.31095e-09
3.56049e-09
-2.22255e-09
3.6029e-09
-2.0457e-09
3.61212e-09
-1.76963e-09
3.58197e-09
-1.39441e-09
3.50744e-09
-9.3315e-10
3.3853e-09
-4.10241e-10
3.21111e-09
1.48386e-10
2.9912e-09
7.00808e-10
2.73469e-09
1.20606e-09
1.63302e-09
2.45331e-09
1.26763e-11
2.56824e-10
3.34027e-11
4.98641e-10
5.65521e-11
6.05662e-10
8.0902e-11
6.43731e-10
1.06954e-10
6.43177e-10
1.36148e-10
6.17242e-10
1.70686e-10
5.71131e-10
2.13536e-10
5.06186e-10
2.68461e-10
4.21832e-10
3.40014e-10
3.16544e-10
4.33456e-10
1.88351e-10
5.5466e-10
3.50689e-11
7.05362e-10
-1.4102e-10
8.82457e-10
-3.32353e-10
1.08223e-09
-5.32302e-10
1.29938e-09
-7.34641e-10
1.5279e-09
-9.34011e-10
1.76178e-09
-1.12634e-09
1.9955e-09
-1.30889e-09
2.22425e-09
-1.48015e-09
2.44413e-09
-1.63954e-09
2.65205e-09
-1.78717e-09
2.8458e-09
-1.92343e-09
3.02389e-09
-2.04862e-09
3.18552e-09
-2.16232e-09
3.33032e-09
-2.26265e-09
3.45818e-09
-2.3452e-09
3.56878e-09
-2.4019e-09
3.66111e-09
-2.42013e-09
3.7329e-09
-2.38275e-09
3.78029e-09
-2.26994e-09
3.79783e-09
-2.06323e-09
3.77914e-09
-1.75094e-09
3.71805e-09
-1.33332e-09
3.60954e-09
-8.24646e-10
3.44992e-09
-2.50618e-10
3.23715e-09
3.61156e-10
2.97905e-09
9.58906e-10
2.68701e-09
1.49811e-09
1.94512e-09
2.37492e-09
1.10593e-11
2.45765e-10
2.84264e-11
4.81274e-10
4.74879e-11
5.86601e-10
6.78487e-11
6.2337e-10
9.0819e-11
6.20206e-10
1.18755e-10
5.89305e-10
1.54979e-10
5.34907e-10
2.03827e-10
4.57338e-10
2.70677e-10
3.54982e-10
3.61905e-10
2.25316e-10
4.84723e-10
6.55326e-11
6.42691e-10
-1.22899e-10
8.32675e-10
-3.31004e-10
1.04977e-09
-5.49449e-10
1.28752e-09
-7.70052e-10
1.53865e-09
-9.85774e-10
1.796e-09
-1.19135e-09
2.05302e-09
-1.38337e-09
2.30414e-09
-1.56001e-09
2.54475e-09
-1.72076e-09
2.77128e-09
-1.86608e-09
2.98109e-09
-1.99697e-09
3.17236e-09
-2.1147e-09
3.34406e-09
-2.22032e-09
3.49578e-09
-2.31404e-09
3.62754e-09
-2.39441e-09
3.73953e-09
-2.45719e-09
3.83166e-09
-2.49404e-09
3.90304e-09
-2.49151e-09
3.95135e-09
-2.43105e-09
3.97248e-09
-2.29108e-09
3.96071e-09
-2.05145e-09
3.90946e-09
-1.69969e-09
3.81261e-09
-1.23647e-09
3.66532e-09
-6.77356e-10
3.46098e-09
-4.62797e-11
3.20337e-09
6.1877e-10
2.90207e-09
1.2602e-09
2.57108e-09
1.8291e-09
2.28941e-09
2.22679e-09
8.94836e-12
2.36817e-10
2.2074e-11
4.68149e-10
3.61459e-11
5.72529e-10
5.18964e-11
6.07619e-10
7.17675e-11
6.00335e-10
9.94205e-11
5.61653e-10
1.39759e-10
4.94569e-10
1.99014e-10
3.98083e-10
2.84657e-10
2.6934e-10
4.05451e-10
1.04521e-10
5.67508e-10
-9.65241e-11
7.6817e-10
-3.23561e-10
1.00123e-09
-5.64068e-10
1.25907e-09
-8.07284e-10
1.533e-09
-1.04398e-09
1.81454e-09
-1.26731e-09
2.09605e-09
-1.47286e-09
2.37102e-09
-1.65834e-09
2.63414e-09
-1.82313e-09
2.88125e-09
-1.96788e-09
3.10923e-09
-2.09406e-09
3.31591e-09
-2.20365e-09
3.49994e-09
-2.29874e-09
3.66071e-09
-2.38109e-09
3.79818e-09
-2.45151e-09
3.91271e-09
-2.50894e-09
4.00478e-09
-2.54925e-09
4.07447e-09
-2.56372e-09
4.1209e-09
-2.53794e-09
4.14163e-09
-2.45178e-09
4.13224e-09
-2.28169e-09
4.0866e-09
-2.00582e-09
3.99783e-09
-1.61092e-09
3.85961e-09
-1.09825e-09
3.66679e-09
-4.84529e-10
3.41124e-09
2.09263e-10
3.10221e-09
9.27804e-10
2.75217e-09
1.61024e-09
2.37838e-09
2.20289e-09
2.66729e-09
2.0005e-09
6.45394e-12
2.30363e-10
1.47487e-11
4.59854e-10
2.34141e-11
5.63863e-10
3.46444e-11
5.96389e-10
5.24073e-11
5.82572e-10
8.21485e-11
5.31911e-10
1.3091e-10
4.45808e-10
2.07429e-10
3.21563e-10
3.21741e-10
1.55028e-10
4.83477e-10
-5.72153e-11
6.91255e-10
-3.04302e-10
9.37734e-10
-5.7004e-10
1.21409e-09
-8.40426e-10
1.51015e-09
-1.10334e-09
1.81595e-09
-1.34978e-09
2.12259e-09
-1.57395e-09
2.42253e-09
-1.77281e-09
2.70966e-09
-1.94546e-09
2.97914e-09
-2.09262e-09
3.22735e-09
-2.21608e-09
3.45168e-09
-2.31839e-09
3.65043e-09
-2.4024e-09
3.82271e-09
-2.47101e-09
3.96827e-09
-2.52665e-09
4.08743e-09
-2.57067e-09
4.18085e-09
-2.60236e-09
4.24919e-09
-2.61759e-09
4.29265e-09
-2.60718e-09
4.3103e-09
-2.5556e-09
4.29946e-09
-2.44094e-09
4.25531e-09
-2.23753e-09
4.17121e-09
-1.92172e-09
4.03988e-09
-1.47958e-09
3.85436e-09
-9.1273e-10
3.60648e-09
-2.36654e-10
3.29298e-09
5.22763e-10
2.92562e-09
1.29516e-09
2.52087e-09
2.015e-09
2.10024e-09
2.62351e-09
3.07971e-09
1.68782e-09
3.72597e-12
2.26637e-10
6.98997e-12
4.5659e-10
1.04719e-11
5.60381e-10
1.81883e-11
5.88673e-10
3.61083e-11
5.64652e-10
7.20366e-11
4.95983e-10
1.35728e-10
3.82116e-10
2.38876e-10
2.18415e-10
3.94628e-10
-7.23196e-13
6.04466e-10
-2.67054e-10
8.60374e-10
-5.6021e-10
1.1525e-09
-8.62168e-10
1.46906e-09
-1.15698e-09
1.79844e-09
-1.43272e-09
2.1303e-09
-1.68164e-09
2.45592e-09
-1.89957e-09
2.76823e-09
-2.08512e-09
3.06166e-09
-2.2389e-09
3.332e-09
-2.36295e-09
3.57616e-09
-2.46025e-09
3.79206e-09
-2.53429e-09
3.97846e-09
-2.5888e-09
4.13486e-09
-2.62741e-09