/*--------------------------------*- C++ -*----------------------------------*\
  =========                 |
  \\      /  F ield         | OpenFOAM: The Open Source CFD Toolbox
   \\    /   O peration     | Website:  https://openfoam.org
    \\  /    A nd           | Version:  6
     \\/     M anipulation  |
\*---------------------------------------------------------------------------*/
FoamFile
{
    version     2.0;
    format      ascii;
    class       volScalarField;
    location    "20";
    object      phii;
}
// * * * * * * * * * * * * * * * * * * * * * * * * * * * * * * * * * * * * * //

dimensions      [1 2 -3 0 0 -1 0];

internalField   nonuniform List<scalar> 
8800
(
24.3508
24.3571
24.3681
24.3835
24.4031
24.4269
24.455
24.4873
24.5237
24.5643
24.6089
24.6573
24.7096
24.7655
24.825
24.8878
24.9538
25.0228
25.0946
25.169
25.2457
25.3245
25.4051
25.4872
25.5706
25.6549
25.7398
25.8249
25.9099
25.9944
26.078
26.1605
26.2414
26.3204
26.3972
26.4715
26.543
26.6113
26.676
26.7368
71.576
71.5933
71.6253
71.6709
71.7297
71.8015
71.8862
71.9836
72.0937
72.2162
72.3507
72.4971
72.6549
72.8238
73.0034
73.1931
73.3925
73.601
73.818
74.0428
74.2747
74.5129
74.7566
75.0049
75.2571
75.5121
75.769
76.0267
76.2842
76.5405
76.7943
77.0446
77.2904
77.5306
77.7643
77.9904
78.2078
78.4155
78.6124
78.7974
117.393
117.421
117.474
117.55
117.648
117.768
117.91
118.073
118.257
118.463
118.688
118.933
119.198
119.481
119.782
120.101
120.435
120.785
121.149
121.526
121.915
122.315
122.724
123.141
123.565
123.994
124.425
124.859
125.292
125.723
126.151
126.573
126.987
127.392
127.787
128.168
128.535
128.886
129.219
129.531
161.871
161.91
161.983
162.089
162.227
162.395
162.595
162.825
163.084
163.373
163.691
164.037
164.409
164.808
165.233
165.681
166.153
166.646
167.159
167.692
168.241
168.805
169.382
169.971
170.57
171.175
171.785
172.398
173.011
173.621
174.227
174.825
175.412
175.987
176.547
177.088
177.609
178.108
178.58
179.024
205.076
205.125
205.22
205.356
205.534
205.752
206.01
206.307
206.643
207.016
207.427
207.875
208.357
208.874
209.424
210.005
210.616
211.255
211.92
212.61
213.322
214.054
214.803
215.568
216.345
217.131
217.924
218.721
219.518
220.313
221.101
221.88
222.646
223.395
224.126
224.833
225.513
226.164
226.781
227.361
247.073
247.134
247.249
247.417
247.635
247.902
248.219
248.585
248.998
249.458
249.964
250.514
251.109
251.745
252.422
253.138
253.891
254.679
255.499
256.35
257.229
258.133
259.058
260.003
260.963
261.935
262.916
263.902
264.89
265.874
266.851
267.817
268.767
269.698
270.604
271.483
272.329
273.138
273.905
274.626
287.924
287.997
288.134
288.333
288.592
288.91
289.287
289.722
290.214
290.761
291.364
292.019
292.727
293.486
294.293
295.146
296.044
296.984
297.964
298.98
300.03
301.109
302.216
303.345
304.494
305.658
306.834
308.015
309.199
310.379
311.552
312.712
313.854
314.972
316.063
317.12
318.138
319.112
320.036
320.905
327.691
327.775
327.934
328.165
328.466
328.836
329.274
329.779
330.351
330.987
331.688
332.451
333.275
334.158
335.098
336.092
337.139
338.235
339.378
340.564
341.789
343.05
344.343
345.664
347.008
348.371
349.747
351.131
352.518
353.903
355.279
356.64
357.982
359.297
360.579
361.822
363.02
364.167
365.256
366.28
366.429
366.525
366.707
366.971
367.314
367.737
368.237
368.814
369.467
370.195
370.995
371.868
372.811
373.821
374.897
376.036
377.236
378.493
379.803
381.164
382.571
384.019
385.505
387.024
388.57
390.139
391.723
393.319
394.918
396.515
398.104
399.676
401.226
402.746
404.229
405.668
407.055
408.383
409.645
410.832
404.194
404.302
404.507
404.804
405.191
405.667
406.231
406.881
407.617
408.438
409.341
410.326
411.39
412.531
413.747
415.035
416.392
417.814
419.298
420.84
422.434
424.077
425.764
427.488
429.245
431.027
432.83
434.645
436.467
438.286
440.097
441.89
443.659
445.394
447.088
448.733
450.32
451.839
453.283
454.642
441.037
441.158
441.386
441.717
442.148
442.679
443.307
444.032
444.853
445.769
446.778
447.877
449.067
450.342
451.702
453.144
454.663
456.256
457.919
459.648
461.437
463.282
465.177
467.116
469.092
471.099
473.13
475.176
477.229
479.282
481.326
483.352
485.35
487.313
489.23
491.092
492.889
494.611
496.248
497.79
477.006
477.139
477.392
477.757
478.234
478.82
479.514
480.316
481.224
482.237
483.354
484.572
485.89
487.304
488.813
490.412
492.099
493.869
495.719
497.642
499.635
501.69
503.803
505.966
508.172
510.414
512.683
514.971
517.269
519.568
521.857
524.128
526.369
528.572
530.724
532.816
534.837
536.774
538.617
540.354
512.147
512.293
512.569
512.97
513.493
514.136
514.898
515.778
516.776
517.889
519.116
520.456
521.906
523.463
525.125
526.889
528.75
530.704
532.747
534.873
537.077
539.352
541.693
544.091
546.538
549.026
551.547
554.09
556.646
559.204
561.753
564.283
566.781
569.238
571.641
573.977
576.235
578.402
580.465
582.41
546.501
546.66
546.961
547.398
547.968
548.669
549.5
550.461
551.55
552.766
554.108
555.573
557.159
558.864
560.685
562.618
564.66
566.805
569.05
571.387
573.812
576.318
578.897
581.541
584.242
586.991
589.777
592.589
595.417
598.25
601.074
603.878
606.65
609.377
612.045
614.643
617.155
619.567
621.865
624.033
580.108
580.279
580.606
581.079
581.697
582.458
583.36
584.404
585.587
586.909
588.368
589.962
591.689
593.547
595.533
597.642
599.871
602.216
604.67
607.229
609.885
612.632
615.462
618.365
621.334
624.357
627.423
630.52
633.637
636.76
639.877
642.973
646.035
649.05
652.003
654.879
657.663
660.338
662.889
665.297
613.003
613.188
613.54
614.051
614.718
615.539
616.514
617.642
618.922
620.353
621.933
623.661
625.534
627.549
629.705
631.997
634.422
636.973
639.647
642.437
645.335
648.336
651.429
654.606
657.857
661.169
664.532
667.932
671.355
674.788
678.215
681.623
684.995
688.318
691.575
694.75
697.826
700.785
703.608
706.277
645.22
645.418
645.796
646.345
647.062
647.946
648.995
650.21
651.589
653.132
654.837
656.702
658.725
660.905
663.237
665.719
668.346
671.114
674.017
677.048
680.2
683.467
686.838
690.303
693.852
697.471
701.148
704.869
708.619
712.381
716.141
719.881
723.585
727.238
730.822
734.318
737.71
740.975
744.094
747.044
676.79
677.001
677.404
677.991
678.76
679.707
680.833
682.137
683.618
685.276
687.109
689.116
691.295
693.643
696.159
698.838
701.676
704.669
707.81
711.094
714.514
718.06
721.723
725.492
729.356
733.3
737.312
741.374
745.471
749.586
753.7
757.797
761.858
765.865
769.801
773.645
777.377
780.975
784.415
787.672
707.738
707.962
708.392
709.018
709.839
710.851
712.055
713.45
715.036
716.812
718.777
720.93
723.269
725.793
728.498
731.381
734.439
737.666
741.057
744.606
748.304
752.144
756.115
760.205
764.402
768.691
773.057
777.484
781.952
786.443
790.937
795.417
799.862
804.252
808.568
812.789
816.891
820.851
824.64
828.233
738.09
738.328
738.784
739.45
740.323
741.402
742.685
744.174
745.867
747.764
749.865
752.168
754.673
757.377
760.278
763.374
766.659
770.13
773.781
777.606
781.597
785.745
790.04
794.469
799.018
803.673
808.417
813.23
818.095
822.989
827.893
832.784
837.643
842.447
847.176
851.807
856.313
860.667
864.84
868.801
767.868
768.119
768.602
769.308
770.235
771.381
772.746
774.33
776.132
778.154
780.394
782.852
785.527
788.417
791.521
794.835
798.357
802.081
806.004
810.117
814.415
818.886
823.521
828.307
833.229
838.272
843.416
848.643
853.931
859.258
864.601
869.938
875.244
880.499
885.677
890.754
895.702
900.49
905.085
909.45
797.091
797.355
797.865
798.612
799.593
800.808
802.255
803.936
805.851
807.999
810.382
812.998
815.848
818.93
822.243
825.783
829.55
833.537
837.742
842.156
846.773
851.584
856.576
861.738
867.054
872.507
878.078
883.746
889.487
895.279
901.096
906.913
912.706
918.45
924.12
929.687
935.121
940.386
945.445
950.258
825.777
826.054
826.59
827.378
828.415
829.699
831.23
833.01
835.039
837.317
839.845
842.623
845.652
848.931
852.458
856.232
860.251
864.512
869.009
873.736
878.687
883.851
889.219
894.776
900.508
906.396
912.419
918.557
924.784
931.075
937.402
943.741
950.063
956.342
962.55
968.657
974.627
980.421
985.995
991.303
853.939
854.229
854.792
855.622
856.714
858.068
859.684
861.564
863.709
866.119
868.795
871.739
874.951
878.431
882.179
886.193
890.473
895.014
899.814
904.867
910.164
915.699
921.459
927.431
933.6
939.948
946.452
953.091
959.837
966.664
973.544
980.447
987.347
994.213
1001.01
1007.72
1014.28
1020.66
1026.81
1032.67
881.59
881.893
882.484
883.354
884.502
885.927
887.63
889.611
891.872
894.416
897.243
900.355
903.754
907.44
911.413
915.674
920.221
925.053
930.165
935.554
941.212
947.131
953.3
959.708
966.336
973.169
980.183
987.354
994.656
1002.06
1009.54
1017.05
1024.58
1032.1
1039.55
1046.92
1054.14
1061.18
1067.97
1074.45
908.74
909.056
909.674
910.586
911.79
913.286
915.075
917.158
919.538
922.217
925.196
928.479
932.067
935.963
940.166
944.679
949.501
954.63
960.064
965.799
971.83
978.148
984.744
991.605
998.716
1006.06
1013.61
1021.35
1029.24
1037.27
1045.39
1053.58
1061.8
1070.02
1078.21
1086.31
1094.28
1102.05
1109.56
1116.73
935.398
935.727
936.372
937.325
938.586
940.153
942.028
944.214
946.712
949.527
952.661
956.116
959.896
964.004
968.442
973.211
978.313
983.746
989.51
995.601
1002.02
1008.75
1015.78
1023.12
1030.73
1038.61
1046.73
1055.07
1063.6
1072.29
1081.11
1090.02
1099.01
1108.01
1117.01
1125.94
1134.74
1143.34
1151.67
1159.61
961.569
961.912
962.583
963.578
964.894
966.532
968.494
970.782
973.4
976.351
979.64
983.269
987.243
991.566
996.241
1001.27
1006.66
1012.4
1018.5
1024.96
1031.76
1038.92
1046.41
1054.23
1062.37
1070.81
1079.53
1088.51
1097.71
1107.11
1116.69
1126.4
1136.21
1146.09
1155.99
1165.85
1175.6
1185.14
1194.39
1203.22
987.26
987.616
988.314
989.349
990.721
992.429
994.477
996.867
999.604
1002.69
1006.13
1009.94
1014.11
1018.65
1023.56
1028.85
1034.53
1040.58
1047.03
1053.85
1061.06
1068.65
1076.61
1084.94
1093.62
1102.65
1111.99
1121.63
1131.55
1141.72
1152.11
1162.69
1173.42
1184.27
1195.18
1206.09
1216.91
1227.53
1237.83
1247.67
1012.47
1012.84
1013.57
1014.64
1016.07
1017.85
1019.98
1022.47
1025.33
1028.55
1032.15
1036.12
1040.49
1045.24
1050.4
1055.95
1061.92
1068.29
1075.08
1082.28
1089.9
1097.93
1106.37
1115.21
1124.46
1134.08
1144.08
1154.43
1165.11
1176.09
1187.36
1198.88
1210.62
1222.54
1234.6
1246.7
1258.74
1270.59
1282.1
1293.09
1037.21
1037.59
1038.34
1039.46
1040.94
1042.78
1045
1047.59
1050.56
1053.92
1057.67
1061.82
1066.38
1071.35
1076.75
1082.57
1088.82
1095.51
1102.64
1110.22
1118.25
1126.73
1135.65
1145.03
1154.84
1165.09
1175.77
1186.85
1198.32
1210.17
1222.38
1234.93
1247.78
1260.9
1274.24
1287.7
1301.15
1314.42
1327.33
1339.66
1061.47
1061.86
1062.64
1063.79
1065.33
1067.24
1069.54
1072.23
1075.32
1078.81
1082.71
1087.03
1091.78
1096.97
1102.6
1108.68
1115.22
1122.23
1129.7
1137.66
1146.1
1155.03
1164.44
1174.35
1184.75
1195.64
1207
1218.85
1231.15
1243.92
1257.14
1270.79
1284.86
1299.32
1314.1
1329.11
1344.18
1359.12
1373.67
1387.56
1085.26
1085.66
1086.46
1087.65
1089.24
1091.22
1093.6
1096.38
1099.58
1103.2
1107.26
1111.75
1116.69
1122.08
1127.95
1134.28
1141.11
1148.43
1156.24
1164.57
1173.42
1182.8
1192.7
1203.15
1214.13
1225.66
1237.74
1250.36
1263.54
1277.26
1291.54
1306.38
1321.78
1337.72
1354.14
1370.92
1387.88
1404.77
1421.27
1437.01
1108.57
1108.98
1109.81
1111.03
1112.67
1114.71
1117.17
1120.05
1123.36
1127.11
1131.3
1135.96
1141.08
1146.69
1152.78
1159.37
1166.47
1174.09
1182.25
1190.94
1200.19
1210.01
1220.4
1231.37
1242.94
1255.12
1267.91
1281.33
1295.39
1310.11
1325.51
1341.62
1358.46
1376.03
1394.27
1413.09
1432.26
1451.47
1470.31
1488.27
1131.4
1131.83
1132.67
1133.93
1135.61
1137.72
1140.25
1143.22
1146.64
1150.51
1154.85
1159.66
1164.97
1170.77
1177.08
1183.92
1191.29
1199.21
1207.69
1216.74
1226.38
1236.63
1247.49
1258.99
1271.13
1283.95
1297.45
1311.67
1326.62
1342.36
1358.92
1376.36
1394.74
1414.09
1434.38
1455.52
1477.27
1499.28
1520.99
1541.71
1153.75
1154.19
1155.05
1156.35
1158.07
1160.24
1162.84
1165.9
1169.42
1173.41
1177.89
1182.85
1188.33
1194.32
1200.85
1207.92
1215.55
1223.75
1232.54
1241.94
1251.96
1262.62
1273.94
1285.94
1298.65
1312.09
1326.29
1341.29
1357.14
1373.89
1391.63
1410.45
1430.45
1451.7
1474.24
1498.01
1522.8
1548.2
1573.52
1597.76
1175.61
1176.06
1176.95
1178.27
1180.04
1182.26
1184.94
1188.08
1191.7
1195.8
1200.4
1205.52
1211.16
1217.34
1224.06
1231.36
1239.23
1247.7
1256.79
1266.52
1276.89
1287.95
1299.7
1312.19
1325.43
1339.46
1354.34
1370.1
1386.81
1404.57
1423.48
1443.69
1465.34
1488.59
1513.55
1540.25
1568.56
1598.11
1628.06
1657.03
1196.99
1197.45
1198.35
1199.71
1201.52
1203.79
1206.53
1209.75
1213.46
1217.67
1222.4
1227.65
1233.45
1239.79
1246.71
1254.22
1262.32
1271.05
1280.42
1290.44
1301.16
1312.58
1324.74
1337.68
1351.42
1366.02
1381.52
1397.99
1415.53
1434.24
1454.28
1475.84
1499.12
1524.39
1551.85
1581.7
1614.01
1648.57
1684.63
1720.34
1217.88
1218.35
1219.27
1220.65
1222.5
1224.82
1227.62
1230.92
1234.71
1239.02
1243.86
1249.25
1255.18
1261.69
1268.78
1276.48
1284.8
1293.76
1303.39
1313.7
1324.72
1336.48
1349.02
1362.37
1376.57
1391.68
1407.76
1424.89
1443.18
1462.77
1483.85
1506.66
1531.48
1558.66
1588.57
1621.61
1658.18
1698.58
1742.64
1788.65
1238.28
1238.75
1239.69
1241.1
1242.98
1245.35
1248.2
1251.57
1255.44
1259.85
1264.79
1270.29
1276.36
1283.01
1290.27
1298.14
1306.66
1315.83
1325.69
1336.26
1347.56
1359.63
1372.5
1386.22
1400.83
1416.39
1432.98
1450.69
1469.65
1490.01
1512
1535.9
1562.07
1590.93
1623.01
1658.94
1699.58
1746.06
1799.86
1862.06
26.7933
26.8452
26.8922
26.9338
26.97
27.0003
27.0247
27.0431
27.0554
27.0615
27.0615
27.0554
27.0431
27.0247
27.0003
26.97
26.9338
26.8922
26.8452
26.7933
78.9694
79.1273
79.2702
79.3971
79.5071
79.5996
79.6742
79.7303
79.7679
79.7867
79.7867
79.7679
79.7303
79.6742
79.5996
79.5071
79.3971
79.2702
79.1273
78.9694
129.822
130.088
130.33
130.544
130.73
130.887
131.013
131.108
131.172
131.204
131.204
131.172
131.108
131.013
130.887
130.73
130.544
130.33
130.088
129.822
179.436
179.816
180.159
180.464
180.728
180.951
181.131
181.266
181.357
181.403
181.403
181.357
181.266
181.131
180.951
180.728
180.464
180.159
179.816
179.436
227.9
228.396
228.844
229.243
229.589
229.881
230.116
230.294
230.413
230.472
230.472
230.413
230.294
230.116
229.881
229.589
229.243
228.844
228.396
227.9
275.298
275.914
276.473
276.969
277.401
277.764
278.057
278.279
278.427
278.501
278.501
278.427
278.279
278.057
277.764
277.401
276.969
276.473
275.914
275.298
321.714
322.457
323.131
323.729
324.25
324.688
325.042
325.31
325.489
325.579
325.579
325.489
325.31
325.042
324.688
324.25
323.729
323.131
322.457
321.714
367.233
368.109
368.903
369.609
370.223
370.741
371.159
371.474
371.686
371.792
371.792
371.686
371.474
371.159
370.741
370.223
369.609
368.903
368.109
367.233
411.937
412.954
413.875
414.695
415.407
416.008
416.493
416.86
417.106
417.229
417.229
417.106
416.86
416.493
416.008
415.407
414.695
413.875
412.954
411.937
455.909
457.073
458.129
459.069
459.886
460.576
461.132
461.553
461.835
461.976
461.976
461.835
461.553
461.132
460.576
459.886
459.069
458.129
457.073
455.909
499.227
500.55
501.749
502.817
503.745
504.529
505.162
505.64
505.96
506.121
506.121
505.96
505.64
505.162
504.529
503.745
502.817
501.749
500.55
499.228
541.973
543.464
544.816
546.02
547.068
547.952
548.666
549.206
549.568
549.749
549.749
549.568
549.206
548.666
547.952
547.068
546.02
544.816
543.464
541.973
584.224
585.895
587.411
588.762
589.938
590.93
591.731
592.337
592.744
592.947
592.947
592.744
592.337
591.731
590.93
589.938
588.762
587.411
585.895
584.224
626.056
627.922
629.615
631.123
632.437
633.545
634.441
635.119
635.573
635.801
635.801
635.573
635.119
634.441
633.545
632.437
631.123
629.615
627.922
626.056
667.547
669.622
671.506
673.186
674.648
675.883
676.881
677.636
678.142
678.396
678.396
678.142
677.636
676.881
675.883
674.648
673.186
671.506
669.622
667.547
708.771
711.073
713.165
715.03
716.655
718.027
719.136
719.975
720.537
720.819
720.819
720.537
719.975
719.136
718.027
716.655
715.03
713.165
711.073
708.771
749.805
752.354
754.671
756.739
758.54
760.061
761.291
762.222
762.846
763.159
763.159
762.846
762.222
761.291
760.061
758.54
756.739
754.671
752.354
749.805
790.722
793.541
796.105
798.394
800.388
802.072
803.435
804.465
805.156
805.503
805.503
805.156
804.465
803.435
802.072
800.388
798.394
796.105
793.541
790.722
831.6
834.715
837.549
840.079
842.285
844.148
845.655
846.795
847.56
847.944
847.944
847.56
846.795
845.655
844.148
842.285
840.079
837.549
834.715
831.6
872.516
875.955
879.086
881.882
884.319
886.379
888.045
889.305
890.151
890.575
890.575
890.151
889.305
888.045
886.379
884.319
881.882
879.086
875.955
872.516
913.549
917.344
920.802
923.891
926.583
928.859
930.699
932.092
933.025
933.494
933.494
933.025
932.092
930.699
928.859
926.583
923.891
920.802
917.344
913.549
954.78
958.97
962.788
966.199
969.173
971.686
973.718
975.255
976.286
976.803
976.803
976.286
975.255
973.718
971.686
969.173
966.199
962.788
958.97
954.78
996.295
1000.92
1005.14
1008.91
1012.19
1014.96
1017.21
1018.9
1020.04
1020.61
1020.61
1020.04
1018.9
1017.21
1014.96
1012.19
1008.91
1005.14
1000.92
996.295
1038.18
1043.3
1047.95
1052.12
1055.74
1058.8
1061.27
1063.14
1064.4
1065.02
1065.02
1064.4
1063.14
1061.27
1058.8
1055.74
1052.12
1047.95
1043.3
1038.18
1080.54
1086.2
1091.34
1095.94
1099.94
1103.32
1106.04
1108.1
1109.48
1110.17
1110.17
1109.48
1108.1
1106.04
1103.32
1099.94
1095.94
1091.34
1086.2
1080.54
1123.48
1129.73
1135.43
1140.5
1144.92
1148.64
1151.64
1153.9
1155.42
1156.18
1156.18
1155.42
1153.9
1151.64
1148.64
1144.92
1140.5
1135.43
1129.73
1123.48
1167.1
1174.03
1180.33
1185.94
1190.81
1194.9
1198.2
1200.68
1202.34
1203.17
1203.17
1202.34
1200.68
1198.2
1194.9
1190.81
1185.94
1180.33
1174.03
1167.1
1211.53
1219.22
1226.19
1232.39
1237.75
1242.25
1245.87
1248.58
1250.39
1251.3
1251.3
1250.39
1248.58
1245.87
1242.25
1237.75
1232.39
1226.19
1219.22
1211.53
1256.91
1265.45
1273.18
1280.02
1285.92
1290.85
1294.8
1297.76
1299.73
1300.71
1300.71
1299.73
1297.76
1294.8
1290.85
1285.92
1280.02
1273.18
1265.45
1256.91
1303.41
1312.91
1321.47
1329.02
1335.5
1340.88
1345.17
1348.37
1350.5
1351.56
1351.56
1350.5
1348.37
1345.17
1340.88
1335.5
1329.02
1321.47
1312.91
1303.41
1351.21
1361.79
1371.28
1379.59
1386.67
1392.52
1397.15
1400.59
1402.86
1403.99
1403.99
1402.86
1400.59
1397.15
1392.52
1386.67
1379.59
1371.28
1361.79
1351.21
1400.52
1412.34
1422.85
1431.97
1439.67
1445.97
1450.92
1454.57
1456.97
1458.17
1458.17
1456.97
1454.57
1450.92
1445.97
1439.67
1431.97
1422.85
1412.34
1400.52
1451.63
1464.85
1476.48
1486.44
1494.74
1501.45
1506.67
1510.49
1512.98
1514.22
1514.22
1512.98
1510.49
1506.67
1501.45
1494.74
1486.44
1476.48
1464.85
1451.63
1504.87
1519.7
1532.53
1543.32
1552.16
1559.19
1564.58
1568.49
1571.02
1572.27
1572.27
1571.02
1568.49
1564.58
1559.19
1552.16
1543.32
1532.53
1519.7
1504.87
1560.7
1577.36
1591.44
1602.99
1612.22
1619.41
1624.83
1628.71
1631.2
1632.42
1632.42
1631.2
1628.71
1624.83
1619.41
1612.22
1602.99
1591.44
1577.36
1560.7
1619.75
1638.52
1653.81
1665.89
1675.23
1682.32
1687.55
1691.23
1693.57
1694.71
1694.71
1693.57
1691.23
1687.55
1682.32
1675.23
1665.89
1653.81
1638.52
1619.75
1683.01
1704.15
1720.38
1732.53
1741.51
1748.09
1752.82
1756.09
1758.15
1759.14
1759.14
1758.15
1756.09
1752.82
1748.09
1741.51
1732.53
1720.38
1704.15
1683.01
1752.18
1775.75
1792.13
1803.41
1811.26
1816.77
1820.63
1823.24
1824.86
1825.64
1825.64
1824.86
1823.24
1820.63
1816.77
1811.26
1803.41
1792.13
1775.75
1752.18
1830.78
1855.72
1870.12
1878.87
1884.5
1888.26
1890.82
1892.52
1893.57
1894.07
1894.07
1893.57
1892.52
1890.82
1888.26
1884.5
1878.87
1870.12
1855.72
1830.78
1927.8
1947.44
1954.99
1958.68
1960.81
1962.17
1963.08
1963.67
1964.03
1964.2
1964.2
1964.03
1963.67
1963.08
1962.17
1960.81
1958.68
1954.99
1947.44
1927.8
26.7368
26.676
26.6113
26.543
26.4715
26.3972
26.3204
26.2414
26.1605
26.078
25.9944
25.9099
25.8249
25.7398
25.6549
25.5706
25.4872
25.4051
25.3245
25.2457
25.169
25.0946
25.0228
24.9538
24.8878
24.825
24.7655
24.7096
24.6573
24.6089
24.5643
24.5237
24.4873
24.455
24.4269
24.4031
24.3835
24.3681
24.3571
24.3508
78.7974
78.6124
78.4155
78.2078
77.9904
77.7643
77.5306
77.2904
77.0446
76.7943
76.5405
76.2842
76.0267
75.769
75.5121
75.2571
75.0049
74.7566
74.5129
74.2747
74.0428
73.818
73.601
73.3925
73.1931
73.0034
72.8238
72.6549
72.4971
72.3507
72.2162
72.0937
71.9836
71.8862
71.8015
71.7297
71.6709
71.6253
71.5933
71.576
129.531
129.219
128.886
128.535
128.168
127.787
127.392
126.987
126.573
126.151
125.723
125.292
124.859
124.425
123.994
123.565
123.141
122.724
122.315
121.915
121.526
121.149
120.785
120.435
120.101
119.782
119.481
119.198
118.933
118.688
118.463
118.257
118.073
117.91
117.768
117.648
117.55
117.474
117.421
117.393
179.024
178.58
178.108
177.609
177.088
176.547
175.987
175.412
174.825
174.227
173.621
173.011
172.398
171.785
171.175
170.57
169.971
169.382
168.805
168.241
167.692
167.159
166.646
166.153
165.681
165.233
164.808
164.409
164.037
163.691
163.373
163.084
162.825
162.595
162.395
162.227
162.089
161.983
161.91
161.871
227.361
226.781
226.164
225.513
224.833
224.126
223.395
222.646
221.88
221.101
220.313
219.518
218.721
217.924
217.131
216.345
215.568
214.803
214.054
213.322
212.61
211.92
211.255
210.616
210.005
209.424
208.874
208.357
207.875
207.427
207.016
206.643
206.307
206.01
205.752
205.534
205.356
205.22
205.125
205.076
274.626
273.905
273.138
272.329
271.483
270.604
269.698
268.767
267.817
266.851
265.874
264.89
263.902
262.916
261.935
260.963
260.003
259.058
258.133
257.229
256.35
255.499
254.679
253.891
253.138
252.422
251.745
251.109
250.514
249.964
249.458
248.998
248.585
248.219
247.902
247.635
247.417
247.249
247.134
247.073
320.905
320.036
319.112
318.138
317.12
316.063
314.972
313.854
312.712
311.552
310.379
309.199
308.015
306.834
305.658
304.494
303.345
302.216
301.109
300.03
298.98
297.964
296.984
296.044
295.146
294.293
293.486
292.727
292.019
291.364
290.761
290.214
289.722
289.287
288.91
288.592
288.333
288.134
287.997
287.924
366.28
365.256
364.167
363.02
361.822
360.579
359.297
357.982
356.64
355.279
353.903
352.518
351.131
349.747
348.37
347.008
345.664
344.343
343.05
341.789
340.564
339.378
338.235
337.139
336.092
335.098
334.158
333.275
332.451
331.688
330.987
330.351
329.779
329.274
328.836
328.466
328.165
327.934
327.775
327.691
410.832
409.645
408.383
407.055
405.668
404.229
402.746
401.226
399.676
398.104
396.515
394.918
393.319
391.723
390.139
388.57
387.024
385.505
384.019
382.571
381.164
379.803
378.493
377.236
376.036
374.897
373.821
372.811
371.868
370.995
370.195
369.467
368.814
368.237
367.737
367.314
366.971
366.707
366.525
366.429
454.642
453.283
451.839
450.32
448.733
447.088
445.394
443.659
441.89
440.097
438.286
436.467
434.645
432.83
431.027
429.245
427.488
425.764
424.077
422.434
420.84
419.298
417.814
416.392
415.035
413.747
412.531
411.39
410.326
409.341
408.438
407.617
406.881
406.231
405.667
405.191
404.804
404.507
404.302
404.194
497.79
496.248
494.611
492.889
491.092
489.23
487.313
485.35
483.352
481.326
479.282
477.229
475.176
473.13
471.099
469.092
467.116
465.177
463.282
461.437
459.648
457.919
456.256
454.663
453.144
451.702
450.342
449.066
447.877
446.778
445.769
444.853
444.032
443.307
442.679
442.148
441.717
441.386
441.158
441.037
540.354
538.617
536.774
534.837
532.816
530.724
528.572
526.369
524.128
521.857
519.568
517.269
514.971
512.683
510.414
508.172
505.966
503.803
501.69
499.635
497.642
495.719
493.869
492.099
490.412
488.813
487.304
485.89
484.572
483.354
482.237
481.224
480.316
479.514
478.82
478.234
477.757
477.392
477.139
477.006
582.41
580.465
578.402
576.235
573.977
571.641
569.238
566.781
564.283
561.753
559.204
556.646
554.09
551.547
549.026
546.538
544.091
541.693
539.352
537.077
534.873
532.747
530.704
528.75
526.889
525.125
523.463
521.906
520.456
519.116
517.889
516.776
515.778
514.898
514.136
513.493
512.97
512.569
512.293
512.147
624.033
621.865
619.567
617.155
614.643
612.045
609.377
606.65
603.878
601.074
598.25
595.417
592.589
589.777
586.991
584.242
581.541
578.897
576.318
573.812
571.387
569.05
566.805
564.66
562.618
560.685
558.864
557.159
555.573
554.108
552.766
551.55
550.461
549.5
548.669
547.968
547.398
546.961
546.66
546.501
665.297
662.889
660.338
657.663
654.879
652.003
649.05
646.035
642.973
639.877
636.76
633.637
630.52
627.423
624.357
621.334
618.365
615.462
612.632
609.885
607.229
604.67
602.216
599.871
597.642
595.533
593.547
591.689
589.962
588.368
586.909
585.587
584.404
583.36
582.458
581.697
581.079
580.606
580.279
580.108
706.277
703.608
700.785
697.826
694.75
691.575
688.318
684.995
681.623
678.215
674.788
671.355
667.932
664.532
661.169
657.857
654.606
651.429
648.336
645.335
642.437
639.647
636.973
634.422
631.997
629.705
627.549
625.534
623.66
621.933
620.353
618.922
617.642
616.514
615.539
614.718
614.051
613.54
613.188
613.003
747.044
744.094
740.975
737.71
734.318
730.822
727.238
723.585
719.881
716.141
712.381
708.619
704.869
701.148
697.471
693.852
690.303
686.838
683.467
680.2
677.048
674.016
671.114
668.346
665.719
663.237
660.905
658.725
656.702
654.837
653.132
651.589
650.21
648.995
647.945
647.062
646.345
645.796
645.418
645.22
787.672
784.415
780.975
777.377
773.645
769.801
765.865
761.858
757.797
753.7
749.586
745.471
741.374
737.312
733.3
729.356
725.492
721.723
718.06
714.514
711.094
707.81
704.669
701.676
698.838
696.159
693.643
691.295
689.116
687.109
685.276
683.618
682.137
680.833
679.707
678.76
677.991
677.404
677.001
676.79
828.233
824.64
820.851
816.891
812.789
808.568
804.252
799.862
795.417
790.938
786.443
781.952
777.484
773.057
768.691
764.402
760.205
756.115
752.144
748.304
744.606
741.057
737.666
734.439
731.381
728.498
725.793
723.269
720.93
718.777
716.812
715.036
713.45
712.055
710.851
709.839
709.018
708.392
707.962
707.738
868.801
864.84
860.667
856.313
851.807
847.176
842.447
837.643
832.784
827.893
822.989
818.095
813.23
808.417
803.673
799.018
794.469
790.04
785.745
781.597
777.606
773.781
770.13
766.659
763.374
760.278
757.377
754.673
752.168
749.865
747.764
745.867
744.174
742.685
741.402
740.323
739.45
738.784
738.328
738.09
909.45
905.085
900.49
895.702
890.754
885.677
880.499
875.244
869.938
864.601
859.258
853.931
848.643
843.416
838.272
833.229
828.307
823.521
818.886
814.415
810.117
806.004
802.081
798.357
794.835
791.521
788.417
785.527
782.852
780.394
778.154
776.132
774.33
772.746
771.381
770.235
769.308
768.602
768.119
767.868
950.258
945.445
940.386
935.121
929.687
924.12
918.45
912.706
906.913
901.096
895.279
889.487
883.746
878.078
872.507
867.054
861.738
856.576
851.584
846.773
842.156
837.742
833.537
829.55
825.783
822.243
818.93
815.848
812.998
810.382
807.999
805.851
803.936
802.255
800.808
799.593
798.612
797.865
797.355
797.091
991.303
985.995
980.421
974.627
968.657
962.551
956.342
950.063
943.741
937.402
931.075
924.784
918.557
912.419
906.396
900.508
894.776
889.219
883.851
878.687
873.736
869.008
864.512
860.251
856.232
852.458
848.931
845.652
842.623
839.845
837.317
835.039
833.01
831.23
829.699
828.415
827.378
826.59
826.054
825.777
1032.67
1026.81
1020.66
1014.28
1007.72
1001.01
994.213
987.347
980.447
973.544
966.664
959.837
953.091
946.452
939.948
933.6
927.431
921.459
915.699
910.164
904.867
899.814
895.014
890.473
886.193
882.179
878.431
874.951
871.739
868.795
866.119
863.709
861.564
859.684
858.068
856.714
855.622
854.792
854.229
853.939
1074.45
1067.97
1061.18
1054.14
1046.92
1039.55
1032.1
1024.58
1017.05
1009.54
1002.06
994.656
987.354
980.183
973.169
966.336
959.708
953.3
947.131
941.212
935.554
930.165
925.053
920.221
915.674
911.413
907.44
903.754
900.355
897.243
894.416
891.872
889.611
887.629
885.927
884.502
883.354
882.484
881.893
881.589
1116.73
1109.56
1102.05
1094.28
1086.31
1078.21
1070.02
1061.8
1053.58
1045.39
1037.27
1029.24
1021.35
1013.61
1006.06
998.716
991.605
984.744
978.148
971.83
965.799
960.064
954.63
949.501
944.679
940.166
935.963
932.067
928.479
925.196
922.217
919.538
917.158
915.075
913.286
911.79
910.586
909.674
909.056
908.74
1159.61
1151.67
1143.35
1134.74
1125.94
1117.01
1108.01
1099.01
1090.02
1081.11
1072.29
1063.6
1055.07
1046.73
1038.61
1030.73
1023.12
1015.78
1008.75
1002.02
995.601
989.51
983.746
978.313
973.211
968.442
964.004
959.896
956.116
952.661
949.527
946.712
944.214
942.028
940.153
938.586
937.325
936.372
935.727
935.398
1203.22
1194.39
1185.14
1175.6
1165.85
1155.99
1146.09
1136.21
1126.4
1116.69
1107.11
1097.71
1088.51
1079.53
1070.81
1062.37
1054.23
1046.41
1038.92
1031.76
1024.96
1018.5
1012.4
1006.66
1001.27
996.241
991.566
987.243
983.269
979.64
976.351
973.4
970.782
968.494
966.532
964.894
963.578
962.583
961.912
961.569
1247.67
1237.83
1227.53
1216.91
1206.09
1195.18
1184.27
1173.42
1162.69
1152.11
1141.72
1131.55
1121.63
1111.99
1102.65
1093.62
1084.94
1076.61
1068.65
1061.06
1053.85
1047.03
1040.58
1034.53
1028.85
1023.56
1018.65
1014.11
1009.94
1006.13
1002.69
999.604
996.867
994.477
992.429
990.721
989.349
988.314
987.616
987.26
1293.09
1282.1
1270.59
1258.74
1246.7
1234.6
1222.54
1210.62
1198.88
1187.36
1176.09
1165.11
1154.43
1144.08
1134.08
1124.46
1115.21
1106.37
1097.93
1089.9
1082.28
1075.08
1068.29
1061.92
1055.95
1050.4
1045.24
1040.49
1036.12
1032.15
1028.55
1025.33
1022.47
1019.98
1017.85
1016.07
1014.64
1013.57
1012.84
1012.47
1339.66
1327.33
1314.42
1301.15
1287.7
1274.24
1260.9
1247.78
1234.93
1222.38
1210.17
1198.32
1186.85
1175.77
1165.09
1154.84
1145.03
1135.65
1126.73
1118.25
1110.22
1102.64
1095.51
1088.82
1082.57
1076.75
1071.35
1066.38
1061.82
1057.67
1053.92
1050.56
1047.59
1045
1042.78
1040.94
1039.46
1038.34
1037.59
1037.21
1387.56
1373.67
1359.12
1344.18
1329.11
1314.1
1299.32
1284.86
1270.79
1257.14
1243.92
1231.15
1218.85
1207
1195.64
1184.75
1174.35
1164.44
1155.03
1146.1
1137.66
1129.7
1122.23
1115.22
1108.68
1102.6
1096.97
1091.78
1087.03
1082.71
1078.81
1075.32
1072.23
1069.54
1067.24
1065.33
1063.79
1062.64
1061.86
1061.47
1437.01
1421.27
1404.77
1387.88
1370.92
1354.14
1337.72
1321.78
1306.38
1291.54
1277.26
1263.54
1250.36
1237.74
1225.66
1214.13
1203.15
1192.7
1182.8
1173.42
1164.57
1156.24
1148.43
1141.11
1134.28
1127.95
1122.08
1116.69
1111.75
1107.26
1103.2
1099.58