/*--------------------------------*- C++ -*----------------------------------*\
  =========                 |
  \\      /  F ield         | OpenFOAM: The Open Source CFD Toolbox
   \\    /   O peration     | Website:  https://openfoam.org
    \\  /    A nd           | Version:  6
     \\/     M anipulation  |
\*---------------------------------------------------------------------------*/
FoamFile
{
    version     2.0;
    format      ascii;
    class       volScalarField;
    location    "20";
    object      pos;
}
// * * * * * * * * * * * * * * * * * * * * * * * * * * * * * * * * * * * * * //

dimensions      [0 -3 1 0 0 1 0];

internalField   nonuniform List<scalar> 
8800
(
0.000530984
0.000532218
0.000532708
0.000532828
0.000532785
0.000532661
0.000532488
0.00053228
0.000532039
0.000531768
0.000531467
0.000531136
0.000530776
0.000530387
0.000529971
0.000529527
0.000529057
0.000528561
0.000528041
0.000527498
0.000526932
0.000526338
0.000525717
0.000525074
0.000524409
0.000523719
0.000522999
0.000522242
0.00052144
0.000520584
0.000519668
0.000518698
0.000517679
0.000516629
0.000515574
0.000514533
0.000513538
0.000512595
0.000511712
0.000510893
0.000525281
0.000526634
0.000527166
0.000527286
0.000527236
0.000527105
0.000526926
0.00052671
0.00052646
0.000526179
0.000525867
0.000525524
0.000525151
0.000524748
0.000524316
0.000523856
0.000523368
0.000522854
0.000522315
0.000521752
0.000521164
0.000520548
0.000519904
0.000519238
0.000518549
0.000517834
0.000517088
0.000516302
0.000515467
0.000514575
0.000513619
0.000512604
0.000511536
0.000510437
0.000509332
0.00050824
0.000507198
0.000506211
0.000505288
0.000504433
0.00051968
0.000521246
0.000521807
0.000521937
0.000521887
0.00052175
0.000521562
0.000521336
0.000521076
0.000520783
0.000520459
0.000520102
0.000519714
0.000519295
0.000518846
0.000518367
0.00051786
0.000517326
0.000516765
0.00051618
0.000515569
0.000514928
0.000514261
0.000513572
0.00051286
0.00051212
0.000511347
0.000510531
0.000509662
0.00050873
0.000507728
0.00050666
0.000505532
0.000504371
0.000503201
0.000502048
0.000500947
0.000499904
0.00049893
0.000498028
0.000514313
0.000516043
0.000516654
0.000516796
0.000516742
0.000516597
0.0005164
0.000516163
0.000515891
0.000515585
0.000515246
0.000514874
0.00051447
0.000514033
0.000513566
0.000513068
0.000512541
0.000511985
0.000511402
0.000510793
0.000510158
0.000509493
0.000508804
0.000508094
0.000507359
0.000506596
0.000505798
0.000504953
0.00050405
0.000503077
0.000502023
0.000500895
0.000499698
0.000498461
0.000497213
0.000495983
0.000494807
0.000493698
0.00049266
0.000491701
0.000509169
0.000511023
0.000511688
0.000511847
0.000511795
0.000511644
0.000511437
0.000511189
0.000510904
0.000510584
0.000510229
0.000509841
0.000509419
0.000508965
0.000508478
0.000507961
0.000507412
0.000506835
0.00050623
0.000505599
0.000504941
0.000504253
0.000503545
0.000502816
0.000502062
0.000501278
0.000500458
0.000499586
0.000498649
0.000497633
0.000496525
0.00049533
0.000494054
0.00049273
0.000491389
0.000490065
0.000488799
0.000487605
0.00048649
0.000485462
0.000504228
0.000506199
0.000506916
0.000507094
0.000507044
0.000506889
0.000506672
0.000506412
0.000506113
0.000505778
0.000505407
0.000505002
0.000504562
0.000504089
0.000503584
0.000503047
0.000502478
0.00050188
0.000501254
0.000500601
0.000499923
0.000499215
0.00049849
0.000497746
0.000496976
0.000496176
0.000495337
0.000494441
0.000493473
0.000492413
0.000491247
0.000489979
0.000488615
0.00048719
0.000485741
0.000484306
0.000482933
0.000481639
0.00048043
0.000479316
0.00049949
0.000501572
0.000502337
0.000502534
0.000502488
0.000502327
0.000502101
0.000501828
0.000501515
0.000501165
0.000500778
0.000500356
0.000499898
0.000499407
0.000498883
0.000498327
0.00049774
0.000497123
0.000496477
0.000495805
0.000495108
0.000494383
0.000493647
0.00049289
0.000492109
0.000491297
0.000490443
0.000489527
0.000488528
0.000487425
0.000486198
0.000484851
0.000483388
0.000481849
0.000480276
0.000478712
0.000477214
0.0004758
0.000474481
0.000473266
0.000494957
0.000497137
0.000497947
0.000498163
0.00049812
0.000497955
0.00049772
0.000497435
0.000497108
0.000496742
0.000496339
0.0004959
0.000495425
0.000494917
0.000494375
0.000493801
0.000493197
0.000492563
0.0004919
0.000491212
0.000490499
0.000489763
0.000489018
0.000488254
0.000487466
0.000486645
0.000485781
0.000484847
0.00048382
0.000482674
0.000481381
0.000479949
0.000478375
0.000476707
0.000474993
0.000473281
0.000471638
0.000470086
0.000468638
0.000467304
0.00049063
0.000492892
0.000493744
0.000493976
0.000493938
0.000493768
0.000493525
0.000493228
0.000492887
0.000492506
0.000492088
0.000491632
0.000491141
0.000490616
0.000490058
0.000489469
0.000488849
0.0004882
0.000487524
0.000486821
0.000486095
0.000485354
0.000484604
0.000483838
0.000483048
0.000482224
0.000481353
0.000480405
0.000479351
0.000478161
0.000476799
0.000475271
0.000473575
0.000471761
0.000469887
0.000468005
0.000466196
0.000464485
0.000462888
0.000461418
0.000486509
0.000488835
0.000489722
0.000489971
0.000489936
0.000489763
0.000489511
0.000489203
0.00048885
0.000488455
0.000488021
0.00048755
0.000487044
0.000486504
0.000485931
0.000485328
0.000484695
0.000484034
0.000483346
0.000482633
0.000481897
0.000481157
0.000480407
0.000479643
0.000478856
0.000478033
0.000477159
0.0004762
0.000475121
0.000473884
0.000472447
0.000470815
0.00046898
0.000467002
0.000464945
0.000462871
0.000460871
0.000458978
0.000457214
0.000455587
0.000482595
0.000484964
0.000485879
0.000486142
0.000486111
0.000485935
0.000485676
0.000485357
0.000484991
0.000484583
0.000484135
0.00048365
0.00048313
0.000482576
0.000481991
0.000481376
0.000480733
0.000480062
0.000479365
0.000478646
0.000477902
0.000477171
0.000476426
0.000475669
0.00047489
0.000474072
0.0004732
0.000472232
0.000471127
0.000469842
0.000468321
0.000466571
0.00046458
0.000462415
0.000460152
0.00045787
0.00045565
0.000453546
0.000451585
0.000449779
0.000478886
0.000481277
0.000482212
0.000482487
0.00048246
0.000482281
0.000482015
0.000481687
0.000481309
0.000480888
0.000480428
0.00047993
0.000479397
0.000478831
0.000478235
0.000477611
0.000476959
0.000476281
0.000475579
0.000474856
0.000474117
0.000473393
0.000472658
0.000471913
0.000471147
0.000470339
0.000469472
0.000468498
0.000467365
0.000466026
0.000464411
0.000462527
0.000460374
0.000458003
0.0004555
0.000452966
0.000450493
0.000448148
0.000445964
0.000443953
0.000475381
0.000477771
0.000478719
0.000479003
0.000478978
0.000478797
0.000478525
0.000478188
0.0004778
0.000477367
0.000476895
0.000476385
0.000475841
0.000475265
0.00047466
0.000474027
0.00047337
0.000472688
0.000471983
0.000471259
0.000470533
0.000469822
0.0004691
0.000468373
0.000467625
0.000466831
0.000465973
0.000464993
0.00046383
0.000462429
0.000460728
0.000458696
0.000456343
0.000453729
0.000450951
0.000448126
0.000445364
0.000442745
0.000440306
0.000438064
0.000472078
0.000474447
0.000475398
0.000475688
0.000475665
0.000475481
0.000475203
0.000474858
0.00047446
0.000474017
0.000473533
0.000473013
0.000472459
0.000471873
0.000471261
0.000470623
0.000469961
0.000469278
0.000468573
0.00046785
0.000467147
0.000466452
0.00046575
0.000465045
0.00046432
0.000463545
0.000462697
0.000461716
0.000460531
0.000459064
0.000457248
0.000455044
0.000452462
0.000449567
0.000446472
0.000443314
0.000440221
0.000437289
0.000434562
0.000432059
0.000468974
0.000471301
0.000472247
0.000472539
0.000472517
0.00047233
0.000472046
0.000471693
0.000471286
0.000470832
0.000470338
0.000469808
0.000469245
0.000468652
0.000468033
0.000467391
0.000466728
0.000466046
0.000465344
0.000464631
0.000463954
0.000463281
0.000462603
0.000461925
0.000461228
0.000460484
0.000459652
0.000458668
0.00045745
0.000455907
0.000453958
0.000451555
0.000448706
0.000445486
0.000442026
0.000438484
0.000435015
0.000431726
0.000428671
0.000425874
0.000466065
0.000468333
0.000469264
0.000469554
0.000469531
0.000469342
0.000469052
0.000468691
0.000468274
0.000467811
0.000467307
0.000466768
0.000466196
0.000465596
0.000464972
0.000464328
0.000463665
0.000462986
0.000462289
0.000461604
0.000460949
0.000460303
0.000459661
0.000459016
0.000458352
0.000457637
0.000456823
0.000455835
0.000454578
0.000452945
0.00045084
0.000448205
0.000445047
0.00044145
0.000437567
0.000433586
0.000429686
0.000425993
0.000422567
0.000419436
0.000463348
0.000465541
0.000466449
0.000466733
0.000466707
0.000466513
0.000466216
0.000465847
0.000465421
0.000464948
0.000464434
0.000463886
0.000463307
0.0004627
0.000462072
0.000461426
0.000460765
0.000460091
0.000459405
0.000458761
0.000458133
0.000457519
0.000456913
0.000456306
0.00045568
0.000454998
0.000454202
0.000453207
0.000451902
0.000450163
0.000447875
0.000444968
0.000441448
0.000437414
0.000433043
0.000428558
0.000424166
0.000420015
0.00041617
0.000412669
0.000460818
0.000462921
0.000463799
0.000464073
0.000464041
0.000463841
0.000463537
0.000463159
0.000462723
0.000462239
0.000461715
0.000461157
0.00046057
0.000459959
0.000459329
0.000458684
0.000458027
0.000457361
0.000456707
0.000456093
0.000455497
0.000454919
0.000454354
0.00045379
0.000453205
0.000452557
0.00045178
0.000450774
0.00044941
0.000447544
0.000445039
0.000441812
0.000437869
0.000433325
0.000428392
0.000423328
0.000418378
0.00041371
0.000409389
0.000405554
0.000458466
0.000460471
0.000461312
0.000461572
0.000461532
0.000461325
0.000461011
0.000460623
0.000460175
0.00045968
0.000459146
0.000458578
0.000457984
0.000457368
0.000456736
0.000456092
0.000455441
0.000454785
0.000454176
0.000453594
0.000453035
0.000452498
0.000451978
0.000451461
0.000450921
0.000450309
0.000449548
0.000448523
0.000447086
0.000445065
0.000442301
0.000438696
0.000434258
0.000429122
0.000423539
0.000417814
0.000412231
0.000406979
0.000402113
0.000397957
0.000456287
0.000458186
0.000458986
0.000459228
0.000459177
0.00045896
0.000458635
0.000458235
0.000457775
0.000457267
0.000456721
0.000456143
0.00045554
0.000454919
0.000454286
0.000453644
0.000453001
0.00045238
0.000451806
0.00045126
0.000450742
0.000450251
0.00044978
0.000449313
0.000448818
0.000448242
0.000447494
0.000446442
0.000444911
0.000442702
0.000439629
0.000435576
0.000430556
0.000424731
0.0004184
0.000411921
0.000405624
0.000399717
0.000394327
0.000389793
0.000454273
0.000456062
0.000456818
0.000457038
0.000456973
0.000456743
0.000456405
0.00045599
0.000455516
0.000454993
0.000454433
0.000453844
0.000453233
0.000452606
0.000451971
0.000451334
0.000450703
0.000450131
0.000449592
0.000449085
0.000448612
0.00044817
0.000447751
0.000447336
0.00044689
0.000446348
0.000445606
0.000444513
0.000442863
0.000440425
0.000436981
0.000432398
0.000426695
0.000420069
0.000412877
0.000405541
0.00039844
0.00039179
0.000385871
0.000380949
0.000452417
0.000454095
0.000454802
0.000454999
0.000454916
0.00045467
0.000454316
0.000453884
0.000453392
0.000452853
0.000452277
0.000451675
0.000451054
0.000450422
0.000449786
0.000449154
0.00044857
0.000448031
0.000447529
0.000447066
0.000446641
0.000446251
0.000445887
0.000445525
0.000445125
0.000444614
0.000443871
0.000442719
0.00044092
0.000438203
0.000434313
0.000429101
0.000422595
0.000415039
0.000406859
0.000398552
0.000390551
0.000383061
0.000376635
0.000371318
0.000450711
0.000452277
0.000452935
0.000453104
0.000453001
0.000452736
0.000452362
0.00045191
0.000451397
0.000450839
0.000450246
0.000449629
0.000448997
0.000448359
0.000447724
0.000447123
0.000446578
0.000446075
0.000445614
0.000445197
0.000444823
0.000444488
0.000444178
0.00044387
0.000443516
0.00044303
0.000442274
0.000441042
0.000439055
0.000435997
0.000431573
0.000425613
0.000418165
0.000409532
0.000400223
0.000390821
0.000381819
0.000373513
0.000366519
0.000360789
0.000449147
0.000450602
0.000451209
0.000451348
0.000451221
0.000450933
0.000450536
0.00045006
0.000449525
0.000448944
0.000448331
0.000447698
0.000447055
0.000446413
0.000445792
0.000445237
0.000444725
0.000444259
0.000443842
0.000443474
0.000443153
0.000442872
0.000442619
0.000442363
0.00044205
0.000441583
0.000440801
0.000439461
0.00043724
0.000433766
0.000428701
0.000421856
0.000413305
0.000403426
0.000392832
0.000382202
0.000372076
0.000362949
0.000355394
0.000349246
0.000447717
0.000449064
0.000449619
0.000449725
0.000449571
0.000449256
0.000448832
0.000448329
0.000447767
0.000447161
0.000446527
0.000445876
0.000445223
0.000444581
0.000444009
0.000443483
0.000443006
0.000442581
0.00044221
0.000441891
0.000441623
0.000441398
0.000441199
0.000440993
0.000440718
0.000440261
0.000439434
0.000437954
0.000435443
0.000431466
0.000425633
0.000417741
0.000407903
0.000396591
0.000384541
0.000372543
0.000361137
0.000351256
0.000343153
0.000336574
0.000446411
0.000447654
0.000448156
0.000448227
0.000448043
0.000447697
0.000447242
0.000446708
0.000446116
0.000445483
0.000444825
0.000444158
0.000443494
0.000442899
0.000442353
0.000441859
0.000441419
0.000441036
0.000440711
0.000440442
0.000440227
0.000440056
0.00043991
0.000439752
0.000439509
0.00043905
0.000438157
0.000436499
0.000433631
0.000429046
0.000422298
0.000413172
0.000401839
0.000388886
0.000375199
0.000361694
0.00034904
0.000338358
0.000329696
0.000322661
0.000445223
0.000446365
0.000446813
0.000446847
0.000446628
0.000446248
0.000445758
0.000445189
0.000444565
0.000443902
0.000443221
0.000442537
0.00044191
0.000441339
0.000440821
0.00044036
0.000439958
0.000439618
0.000439339
0.00043912
0.000438957
0.000438838
0.000438743
0.000438629
0.000438411
0.000437939
0.000436955
0.000435072
0.000431768
0.000426453
0.000418619
0.000408048
0.000394985
0.000380169
0.000364652
0.000349477
0.000335616
0.000324149
0.000314924
0.000307395
0.000444143
0.000445188
0.000445582
0.000445575
0.000445318
0.0004449
0.000444372
0.000443765
0.000443106
0.000442413
0.000441708
0.000441048
0.000440447
0.000439899
0.000439409
0.000438982
0.000438619
0.000438321
0.000438088
0.000437917
0.000437804
0.000437736
0.00043769
0.000437615
0.000437415
0.000436913
0.00043581
0.000433648
0.000429816
0.00042363
0.000414516
0.000402262
0.000387216
0.000370299
0.000352757
0.000335691
0.000320774
0.00030856
0.000298751
0.000290678
0.000443162
0.000444115
0.000444454
0.000444404
0.000444105
0.000443645
0.000443075
0.000442428
0.000441733
0.00044101
0.000440312
0.000439678
0.000439096
0.000438572
0.000438112
0.000437719
0.000437393
0.000437137
0.000436948
0.000436825
0.00043676
0.000436742
0.000436741
0.000436701
0.000436511
0.000435962
0.000434705
0.000432202
0.000427738
0.000420521
0.000409909
0.00039571
0.000378409
0.000359148
0.000339403
0.000320551
0.000304535
0.000291551
0.00028111
0.000272428
0.000442274
0.000443137
0.00044342
0.000443323
0.000442979
0.000442474
0.00044186
0.000441171
0.00044044
0.000439704
0.000439035
0.000438416
0.000437853
0.000437355
0.000436924
0.000436563
0.000436275
0.000436058
0.000435912
0.000435835
0.000435818
0.000435846
0.000435888
0.000435879
0.000435687
0.000435072
0.000433623
0.000430709
0.000425496
0.00041707
0.00040472
0.000388296
0.000368457
0.000346606
0.000324435
0.000303965
0.000286873
0.000273093
0.000261949
0.000252595
0.000441469
0.000442245
0.00044247
0.000442325
0.000441932
0.000441379
0.000440719
0.000439988
0.000439222
0.000438518
0.00043786
0.000437255
0.000436713
0.000436238
0.000435835
0.000435506
0.000435253
0.000435075
0.000434972
0.000434938
0.000434967
0.000435041
0.000435124
0.000435139
0.000434936
0.000434233
0.000432548
0.000429146
0.000423053
0.000413224
0.000398882
0.000379942
0.000357283
0.000332615
0.000307837
0.000285965
0.000267822
0.000253186
0.000241254
0.000231181
0.000440741
0.000441433
0.000441597
0.0004414
0.000440956
0.000440353
0.000439647
0.000438874
0.000438126
0.000437427
0.000436779
0.000436189
0.000435666
0.000435214
0.000434837
0.000434538
0.000434319
0.000434179
0.000434116
0.000434127
0.000434202
0.00043432
0.00043444
0.000434474
0.000434248
0.000433433
0.000431466
0.000427491
0.000420381
0.000408946
0.000392348
0.0003706
0.000344848
0.000317166
0.000290143
0.000266735
0.000247465
0.000231869
0.000219063
0.000208266
0.000440082
0.00044069
0.000440793
0.000440541
0.000440043
0.000439389
0.000438636
0.00043785
0.000437116
0.000436423
0.000435785
0.000435209
0.000434703
0.000434272
0.000433919
0.000433649
0.000433463
0.00043336
0.000433339
0.000433393
0.000433513
0.000433674
0.000433829
0.000433877
0.000433614
0.000432661
0.000430364
0.000425728
0.000417458
0.00040421
0.000385099
0.000360269
0.000331175
0.000300137
0.000271262
0.000246378
0.000225907
0.000209227
0.000195488
0.00018403
0.000439486
0.000440012
0.000440051
0.000439739
0.000439186
0.000438481
0.000437681
0.000436918
0.000436186
0.000435499
0.00043487
0.000434306
0.000433814
0.0004334
0.000433071
0.000432828
0.000432674
0.000432609
0.000432629
0.000432728
0.000432893
0.000433097
0.000433284
0.000433339
0.000433028
0.00043191
0.000429232
0.000423847
0.000414276
0.000399022
0.00037716
0.000349012
0.00031643
0.000282577
0.000251599
0.000225131
0.000203321
0.000185409
0.000170812
0.000159242
0.000438945
0.00043939
0.000439363
0.000438989
0.000438379
0.000437623
0.000436825
0.00043606
0.000435329
0.000434647
0.000434023
0.000433466
0.000432986
0.000432588
0.000432279
0.000432064
0.000431943
0.000431916
0.00043198
0.000432125
0.000432336
0.000432582
0.000432799
0.000432855
0.000432481
0.000431172
0.000428062
0.000421846
0.000410849
0.000393418
0.000368614
0.000336958
0.000300628
0.000264379
0.000231385
0.000203264
0.000179948
0.000160912
0.000146018
0.000133924
0.000438455
0.000438819
0.000438723
0.000438284
0.000437618
0.00043682
0.000436035
0.000435268
0.000434537
0.000433855
0.000433232
0.00043268
0.000432207
0.000431823
0.000431534
0.000431346
0.00043126
0.000431274
0.000431382
0.000431576
0.000431834
0.000432123
0.000432368
0.000432418
0.000431967
0.00043044
0.000426856
0.000419735
0.000407211
0.000387479
0.000359618
0.000324408
0.00028499
0.000246137
0.000211065
0.000181149
0.000156247
0.000137032
0.000121134
0.000108463
0.000438011
0.000438293
0.000438124
0.000437621
0.000436898
0.000436097
0.000435306
0.000434534
0.000433799
0.000433112
0.000432486
0.000431933
0.000431465
0.000431092
0.000430824
0.000430665
0.000430616
0.000430674
0.000430831
0.000431075
0.000431383
0.000431713
0.000431983
0.000432021
0.00043148
0.000429713
0.000425616
0.000417539
0.000403423
0.000381334
0.000350395
0.000311702
0.000269559
0.000228287
0.000191163
0.000159181
0.00013397
0.000113793
9.67303e-05
8.34735e-05
0.000437608
0.000437808
0.000437563
0.000436995
0.000436223
0.000435429
0.00043463
0.000433851
0.000433106
0.000432408
0.000431772
0.000431213
0.000430747
0.000430386
0.000430139
0.000430012
0.000430004
0.000430109
0.000430319
0.000430617
0.000430976
0.000431349
0.000431641
0.000431659
0.000431016
0.00042899
0.000424353
0.000415292
0.000399573
0.00037516
0.000341233
0.000299769
0.000254994
0.000211511
0.000172514
0.000138779
0.000113473
9.19515e-05
7.37526e-05
5.98117e-05
0.000437241
0.000437358
0.000437037
0.000436404
0.000435618
0.000434811
0.000434002
0.000433208
0.000432445
0.000431729
0.000431077
0.000430509
0.000430043
0.000429694
0.000429471
0.000429379
0.000429417
0.000429576
0.000429843
0.000430198
0.00043061
0.000431025
0.000431335
0.000431327
0.000430571
0.00042827
0.000423082
0.00041304
0.000395767
0.000369184
0.000332706
0.000288823
0.000241824
0.000196493
0.000155821
0.000121458
9.5452e-05
7.27246e-05
5.35342e-05
3.8711e-05
0.000436907
0.00043694
0.000436543
0.000435842
0.000435058
0.000434238
0.000433412
0.000432596
0.000431806
0.000431062
0.000430388
0.000429808
0.000429342
0.000429006
0.000428812
0.000428762
0.000428851
0.000429069
0.000429398
0.000429815
0.000430281
0.000430736
0.000431062
0.000431021
0.000430141
0.000427557
0.000421819
0.000410833
0.000392105
0.000363534
0.000325135
0.000279285
0.000230623
0.000184035
0.000142369
0.00010792
8.11664e-05
5.76993e-05
3.78898e-05
2.20919e-05
0.000510142
0.000509462
0.000508839
0.000508262
0.000507723
0.000507225
0.000506795
0.000506453
0.000506208
0.000506054
0.000506054
0.000506208
0.000506453
0.000506795
0.000507225
0.000507723
0.000508262
0.000508839
0.000509462
0.000510142
0.000503649
0.000502939
0.000502292
0.00050169
0.000501128
0.000500609
0.00050016
0.000499804
0.000499548
0.000499387
0.000499387
0.000499548
0.000499804
0.00050016
0.000500609
0.000501128
0.00050169
0.000502292
0.000502939
0.000503649
0.000497204
0.000496458
0.000495778
0.000495149
0.000494559
0.000494015
0.000493544
0.00049317
0.000492901
0.000492732
0.000492732
0.000492901
0.00049317
0.000493544
0.000494015
0.000494559
0.000495149
0.000495778
0.000496458
0.000497204
0.000490825
0.000490034
0.000489312
0.000488643
0.000488019
0.000487442
0.000486942
0.000486545
0.00048626
0.00048608
0.00048608
0.00048626
0.000486545
0.000486942
0.000487442
0.000488019
0.000488643
0.000489312
0.000490034
0.000490825
0.000484524
0.000483676
0.000482902
0.00048218
0.000481509
0.00048089
0.000480352
0.000479923
0.000479616
0.000479422
0.000479422
0.000479616
0.000479923
0.000480352
0.00048089
0.000481509
0.00048218
0.000482902
0.000483676
0.000484524
0.000478301
0.000477386
0.000476549
0.000475766
0.00047503
0.000474357
0.000473771
0.000473302
0.000472966
0.000472754
0.000472754
0.000472966
0.000473302
0.000473771
0.000474357
0.00047503
0.000475766
0.000476549
0.000477386
0.000478301
0.00047216
0.000471162
0.00047025
0.000469394
0.00046858
0.00046784
0.000467194
0.000466676
0.000466303
0.000466069
0.000466069
0.000466303
0.000466676
0.000467194
0.00046784
0.00046858
0.000469394
0.00047025
0.000471162
0.00047216
0.000466091
0.000464998
0.000463997
0.000463056
0.000462157
0.000461332
0.000460615
0.000460038
0.000459622
0.000459361
0.000459361
0.000459622
0.000460038
0.000460615
0.000461332
0.000462157
0.000463056
0.000463997
0.000464998
0.000466091
0.000460081
0.000458877
0.000457776
0.000456737
0.000455739
0.000454821
0.000454021
0.000453376
0.000452909
0.000452618
0.000452618
0.000452909
0.000453376
0.000454021
0.000454821
0.000455739
0.000456737
0.000457776
0.000458877
0.000460081
0.000454109
0.000452778
0.000451561
0.000450411
0.000449303
0.000448286
0.000447394
0.00044667
0.000446146
0.000445821
0.000445821
0.000446146
0.00044667
0.000447394
0.000448286
0.000449303
0.000450411
0.000451561
0.000452778
0.000454109
0.000448139
0.000446666
0.00044532
0.000444046
0.000442825
0.000441701
0.000440706
0.000439897
0.000439309
0.000438946
0.000438946
0.000439309
0.000439897
0.000440706
0.000441701
0.000442825
0.000444046
0.00044532
0.000446666
0.000448139
0.000442132
0.0004405
0.000439012
0.000437602
0.000436277
0.000435031
0.000433923
0.000433021
0.000432365
0.000431961
0.000431961
0.000432365
0.000433021
0.000433923
0.000435031
0.000436277
0.000437602
0.000439012
0.0004405
0.000442132
0.00043604
0.000434233
0.000432587
0.000431069
0.00042961
0.000428232
0.000427004
0.000426002
0.000425273
0.000424826
0.000424826
0.000425273
0.000426002
0.000427004
0.000428232
0.00042961
0.000431069
0.000432587
0.000434233
0.00043604
0.000429807
0.000427805
0.00042604
0.000424379
0.000422772
0.000421251
0.000419895
0.000418788
0.000417984
0.000417493
0.000417493
0.000417984
0.000418788
0.000419895
0.000421251
0.000422772
0.000424379
0.00042604
0.000427805
0.000429807
0.000423367
0.000421213
0.00041929
0.000417467
0.0004157
0.000414027
0.000412537
0.000411322
0.00041044
0.000409905
0.000409905
0.00041044
0.000411322
0.000412536
0.000414027
0.0004157
0.000417467
0.00041929
0.000421213
0.000423367
0.000416697
0.000414365
0.000412263
0.000410265
0.000408325
0.00040649
0.00040486
0.000403534
0.000402574
0.000401995
0.000401995
0.000402574
0.000403534
0.00040486
0.00040649
0.000408325
0.000410265
0.000412263
0.000414365
0.000416697
0.000409719
0.00040718
0.000404883
0.000402693
0.000400567
0.000398561
0.000396786
0.000395349
0.000394311
0.00039369
0.00039369
0.000394311
0.000395349
0.000396786
0.000398561
0.000400567
0.000402693
0.000404883
0.00040718
0.000409719
0.00040234
0.000399576
0.000397067
0.000394668
0.00039234
0.000390153
0.000388229
0.00038668
0.000385566
0.000384905
0.000384905
0.000385566
0.00038668
0.000388229
0.000390153
0.00039234
0.000394668
0.000397067
0.000399576
0.00040234
0.000394468
0.000391462
0.000388721
0.000386093
0.000383548
0.000381171
0.000379095
0.000377435
0.000376248
0.00037555
0.00037555
0.000376248
0.000377435
0.000379095
0.000381171
0.000383548
0.000386093
0.000388721
0.000391462
0.000394468
0.000386007
0.00038274
0.000379746
0.000376866
0.000374087
0.000371511
0.000369282
0.000367513
0.000366257
0.000365525
0.000365525
0.000366257
0.000367513
0.000369282
0.000371511
0.000374087
0.000376866
0.000379746
0.00038274
0.000386007
0.000376853
0.000373305
0.00037003
0.000366875
0.000363846
0.000361065
0.000358683
0.000356809
0.000355488
0.000354727
0.000354727
0.000355488
0.000356809
0.000358683
0.000361065
0.000363846
0.000366875
0.00037003
0.000373305
0.000376853
0.000366897
0.000363042
0.000359458
0.000356002
0.000352708
0.000349718
0.000347188
0.000345215
0.000343834
0.000343048
0.000343048
0.000343834
0.000345215
0.000347188
0.000349718
0.000352708
0.000356002
0.000359458
0.000363042
0.000366897
0.000356022
0.000351831
0.000347905
0.000344123
0.000340554
0.000337358
0.000334686
0.000332622
0.000331189
0.000330382
0.000330382
0.000331189
0.000332622
0.000334686
0.000337358
0.000340554
0.000344123
0.000347905
0.000351831
0.000356022
0.00034411
0.000339546
0.000335243
0.000331117
0.000327271
0.000323876
0.000321076
0.000318933
0.000317455
0.000316632
0.000316632
0.000317455
0.000318933
0.000321076
0.000323876
0.000327271
0.000331117
0.000335243
0.000339546
0.00034411
0.000331035
0.000326059
0.000321348
0.000316867
0.000312754
0.000309181
0.000306271
0.000304064
0.000302552
0.000301721
0.00030172
0.000302552
0.000304064
0.000306271
0.00030918
0.000312754
0.000316867
0.000321348
0.000326059
0.000331035
0.000316677
0.000311246
0.000306107
0.000301278
0.000296923
0.000293202
0.000290211
0.000287961
0.00028643
0.000285597
0.000285597
0.00028643
0.000287961
0.000290211
0.000293202
0.000296923
0.000301278
0.000306107
0.000311246
0.000316677
0.000300919
0.000295001
0.00028943
0.000284285
0.000279735
0.000275912
0.000272877
0.000270613
0.000269081
0.000268255
0.000268255
0.000269081
0.000270613
0.000272877
0.000275912
0.000279735
0.000284285
0.00028943
0.000295001
0.000300919
0.00028366
0.000277242
0.00027127
0.00026587
0.000261197
0.000257334
0.000254305
0.000252064
0.000250554
0.000249748
0.000249748
0.000250554
0.000252064
0.000254305
0.000257334
0.000261197
0.00026587
0.00027127
0.000277242
0.00028366
0.000264835
0.000257941
0.000251637
0.000246084
0.000241385
0.000237561
0.000234599
0.000232425
0.000230969
0.000230195
0.000230195
0.000230969
0.000232425
0.000234599
0.000237561
0.000241385
0.000246083
0.000251637
0.000257941
0.000264835
0.000244426
0.000237135
0.000230623
0.000225053
0.00022045
0.00021676
0.000213939
0.000211885
0.000210515
0.000209789
0.000209789
0.000210515
0.000211885
0.000213939
0.00021676
0.00022045
0.000225053
0.000230623
0.000237135
0.000244426
0.000222491
0.000214953
0.000208407
0.000202993
0.000198628
0.000195189
0.000192582
0.000190696
0.000189447
0.000188786
0.000188786
0.000189447
0.000190696
0.000192582
0.000195189
0.000198628
0.000202993
0.000208407
0.000214953
0.000222491
0.000199182
0.000191622
0.000185345
0.000180248
0.000176222
0.000173121
0.000170806
0.000169151
0.000168063
0.00016749
0.00016749
0.000168063
0.000169151
0.000170806
0.000173121
0.000176222
0.000180248
0.000185345
0.000191622
0.000199182
0.000174957
0.000167601
0.000161701
0.000157078
0.00015354
0.000150887
0.000148947
0.000147581
0.000146692
0.000146224
0.000146224
0.000146692
0.000147581
0.000148947
0.000150887
0.00015354
0.000157078
0.000161701
0.000167601
0.000174957
0.000150077
0.000143102
0.000137809
0.000133859
0.000130956
0.000128852
0.000127353
0.000126317
0.000125649
0.000125296
0.000125296
0.000125649
0.000126317
0.000127353
0.000128852
0.000130956
0.000133859
0.000137809
0.000143102
0.000150077
0.000124807
0.000118514
0.000114093
0.000111003
0.000108851
0.00010736
0.000106335
0.000105644
0.000105202
0.000104965
0.000104965
0.000105202
0.000105644
0.000106335
0.00010736
0.000108851
0.000111003
0.000114093
0.000118514
0.000124807
9.95641e-05
9.43053e-05
9.10088e-05
8.89153e-05
8.75704e-05
8.67017e-05
8.6139e-05
8.57746e-05
8.55432e-05
8.54111e-05
8.54111e-05
8.55432e-05
8.57746e-05
8.6139e-05
8.67017e-05
8.75704e-05
8.89153e-05
9.10088e-05
9.43053e-05
9.95641e-05
7.48533e-05
7.10004e-05
6.90188e-05
6.79655e-05
6.73951e-05
6.70886e-05
6.6926e-05
6.68365e-05
6.67789e-05
6.67329e-05
6.67329e-05
6.67789e-05
6.68365e-05
6.69259e-05
6.70886e-05
6.73951e-05
6.79655e-05
6.90188e-05
7.10004e-05
7.48533e-05
5.12736e-05
4.91899e-05
4.85768e-05
4.84623e-05
4.85221e-05
4.86408e-05
4.87661e-05
4.88685e-05
4.89301e-05
4.89431e-05
4.89431e-05
4.89301e-05
4.88685e-05
4.87661e-05
4.86408e-05
4.85221e-05
4.84623e-05
4.85768e-05
4.91899e-05
5.12736e-05
2.96712e-05
2.95807e-05
3.01106e-05
3.06274e-05
3.10483e-05
3.13835e-05
3.16428e-05
3.18296e-05
3.19426e-05
3.1979e-05
3.1979e-05
3.19426e-05
3.18296e-05
3.16428e-05
3.13835e-05
3.10483e-05
3.06274e-05
3.01106e-05
2.95807e-05
2.96712e-05
1.15986e-05
1.29953e-05
1.39358e-05
1.45347e-05
1.49419e-05
1.52369e-05
1.54532e-05
1.56048e-05
1.56963e-05
1.57215e-05
1.57215e-05
1.56963e-05
1.56048e-05
1.54532e-05
1.52369e-05
1.49419e-05
1.45347e-05
1.39358e-05
1.29953e-05
1.15986e-05
0.000510893
0.000511712
0.000512595
0.000513538
0.000514533
0.000515574
0.000516629
0.000517679
0.000518698
0.000519668
0.000520584
0.00052144
0.000522242
0.000522999
0.000523719
0.000524409
0.000525074
0.000525717
0.000526338
0.000526932
0.000527498
0.000528041
0.000528561
0.000529057
0.000529527
0.000529971
0.000530387
0.000530776
0.000531136
0.000531467
0.000531768
0.000532039
0.00053228
0.000532488
0.000532661
0.000532785
0.000532828
0.000532708
0.000532218
0.000530984
0.000504433
0.000505288
0.000506211
0.000507198
0.00050824
0.000509332
0.000510437
0.000511536
0.000512604
0.000513619
0.000514575
0.000515467
0.000516302
0.000517088
0.000517834
0.000518549
0.000519238
0.000519904
0.000520548
0.000521164
0.000521752
0.000522315
0.000522854
0.000523368