/*--------------------------------*- C++ -*----------------------------------*\
  =========                 |
  \\      /  F ield         | OpenFOAM: The Open Source CFD Toolbox
   \\    /   O peration     | Website:  https://openfoam.org
    \\  /    A nd           | Version:  6
     \\/     M anipulation  |
\*---------------------------------------------------------------------------*/
FoamFile
{
    version     2.0;
    format      ascii;
    class       volScalarField;
    location    "20";
    object      source;
}
// * * * * * * * * * * * * * * * * * * * * * * * * * * * * * * * * * * * * * //

dimensions      [0 -3 0 0 0 1 0];

internalField   nonuniform List<scalar> 
8800
(
0.000418745
0.000418611
0.00041859
0.00041866
0.000418728
0.000418785
0.000418839
0.000418901
0.000418972
0.00041905
0.000419136
0.00041923
0.00041933
0.000419438
0.000419552
0.000419673
0.000419799
0.000419931
0.000420068
0.000420209
0.000420355
0.000420504
0.000420651
0.0004208
0.00042095
0.000421101
0.000421254
0.000421408
0.000421566
0.000421727
0.000421891
0.000422058
0.000422229
0.000422399
0.000422567
0.00042273
0.000422884
0.00042303
0.000423168
0.000423297
0.000392273
0.000391671
0.00039163
0.000391708
0.000391797
0.000391891
0.000391992
0.000392103
0.000392226
0.000392361
0.000392509
0.000392669
0.00039284
0.000393023
0.000393216
0.00039342
0.000393632
0.000393854
0.000394083
0.00039432
0.000394563
0.000394811
0.000395046
0.000395281
0.000395516
0.000395753
0.000395992
0.000396237
0.00039649
0.000396754
0.000397031
0.000397321
0.000397622
0.000397928
0.000398234
0.000398535
0.000398821
0.000399093
0.000399348
0.000399584
0.000366425
0.000365637
0.000365523
0.000365611
0.000365735
0.00036587
0.000366014
0.000366174
0.00036635
0.000366542
0.00036675
0.000366975
0.000367214
0.000367469
0.000367737
0.000368017
0.00036831
0.000368612
0.000368925
0.000369245
0.000369572
0.000369902
0.000370203
0.000370503
0.000370801
0.0003711
0.000371405
0.000371721
0.000372054
0.00037241
0.000372795
0.000373207
0.000373646
0.000374101
0.000374561
0.000375018
0.000375455
0.000375871
0.000376261
0.00037662
0.00034135
0.000340595
0.000340454
0.000340531
0.000340669
0.000340832
0.000341015
0.000341219
0.000341445
0.000341691
0.000341956
0.000342241
0.000342543
0.000342862
0.000343196
0.000343543
0.000343903
0.000344274
0.000344654
0.000345041
0.000345434
0.000345817
0.000346164
0.000346504
0.000346841
0.000347179
0.000347527
0.000347894
0.000348291
0.00034873
0.000349217
0.000349753
0.000350337
0.000350952
0.000351583
0.000352213
0.000352822
0.000353401
0.000353944
0.000354445
0.000317245
0.000316589
0.000316459
0.000316533
0.00031668
0.000316865
0.00031708
0.000317324
0.000317594
0.000317888
0.000318204
0.00031854
0.000318896
0.000319269
0.000319656
0.000320057
0.000320469
0.000320891
0.000321319
0.000321753
0.000322188
0.0003226
0.000322966
0.000323322
0.000323674
0.000324028
0.000324397
0.000324797
0.000325243
0.000325753
0.000326338
0.000327
0.000327734
0.000328521
0.000329339
0.000330163
0.000330962
0.000331724
0.00033244
0.000333101
0.000294194
0.000293685
0.000293592
0.000293675
0.000293832
0.000294035
0.000294277
0.000294553
0.000294859
0.000295192
0.000295549
0.000295927
0.000296324
0.000296737
0.000297164
0.000297602
0.000298048
0.000298501
0.000298958
0.000299417
0.00029987
0.000300281
0.000300644
0.000300993
0.000301335
0.000301683
0.000302053
0.000302468
0.00030295
0.000303521
0.000304199
0.000304987
0.000305881
0.000306853
0.000307875
0.000308911
0.000309922
0.000310889
0.000311798
0.000312638
0.000272235
0.00027193
0.000271899
0.000272
0.000272167
0.000272386
0.000272647
0.000272947
0.000273281
0.000273642
0.000274028
0.000274435
0.000274859
0.000275298
0.000275747
0.000276204
0.000276667
0.000277132
0.000277597
0.000278059
0.000278505
0.000278889
0.000279227
0.000279546
0.000279858
0.00028018
0.000280532
0.000280945
0.000281448
0.000282072
0.00028284
0.000283756
0.000284817
0.000285989
0.000287233
0.000288504
0.000289751
0.000290945
0.00029207
0.00029311
0.000251395
0.000251351
0.000251405
0.00025153
0.000251709
0.000251937
0.000252211
0.000252526
0.000252876
0.000253255
0.000253657
0.000254079
0.000254516
0.000254964
0.00025542
0.000255879
0.000256339
0.000256798
0.000257251
0.000257695
0.000258113
0.000258445
0.000258737
0.000259007
0.000259271
0.000259547
0.000259865
0.00026026
0.000260772
0.00026144
0.000262294
0.000263342
0.000264581
0.00026597
0.000267458
0.00026899
0.000270498
0.000271947
0.000273312
0.000274574
0.000231688
0.000231953
0.000232111
0.000232268
0.000232456
0.000232689
0.000232969
0.000233289
0.000233645
0.000234029
0.000234435
0.000234858
0.000235294
0.000235737
0.000236183
0.000236628
0.00023707
0.000237505
0.000237929
0.000238337
0.000238707
0.000238964
0.000239194
0.0002394
0.000239598
0.000239813
0.00024008
0.000240444
0.000240953
0.000241655
0.000242593
0.000243777
0.000245205
0.00024683
0.000248588
0.00025041
0.000252211
0.000253943
0.000255578
0.000257087
0.000213113
0.000213725
0.000214003
0.000214196
0.000214393
0.000214626
0.000214903
0.00021522
0.000215571
0.000215949
0.000216347
0.000216759
0.00021718
0.000217605
0.000218028
0.000218446
0.000218855
0.000219252
0.000219633
0.00021999
0.000220293
0.000220459
0.000220614
0.00022074
0.000220859
0.000221
0.000221202
0.00022152
0.000222015
0.000222744
0.000223763
0.000225087
0.000226719
0.000228601
0.000230658
0.00023281
0.000234936
0.000236984
0.000238914
0.000240696
0.000195658
0.000196641
0.000197049
0.000197283
0.000197487
0.000197717
0.000197984
0.00019829
0.000198628
0.00019899
0.000199369
0.000199759
0.000200155
0.00020055
0.000200939
0.000201318
0.000201683
0.00020203
0.000202357
0.000202648
0.000202845
0.000202936
0.000203005
0.000203042
0.000203071
0.000203125
0.00020325
0.000203511
0.00020398
0.000204729
0.000205828
0.000207298
0.000209155
0.000211322
0.000213706
0.000216206
0.000218696
0.000221099
0.000223362
0.000225449
0.000179299
0.000180664
0.00018121
0.000181486
0.000181698
0.000181919
0.000182173
0.000182461
0.000182777
0.000183115
0.000183467
0.000183827
0.000184189
0.000184545
0.000184892
0.000185224
0.000185537
0.000185828
0.000186091
0.000186309
0.000186386
0.000186394
0.000186371
0.000186312
0.000186242
0.0001862
0.000186238
0.000186432
0.000186867
0.000187631
0.000188816
0.000190446
0.000192529
0.000194997
0.000197738
0.000200629
0.000203524
0.000206322
0.000208958
0.000211385
0.000164005
0.000165748
0.000166435
0.000166757
0.000166974
0.000167186
0.000167422
0.000167687
0.000167977
0.000168285
0.000168604
0.000168928
0.000169249
0.000169562
0.000169861
0.00017014
0.000170396
0.000170626
0.000170822
0.000170961
0.00017091
0.00017083
0.000170711
0.00017055
0.000170376
0.000170231
0.000170175
0.000170295
0.000170694
0.000171476
0.000172738
0.000174532
0.00017686
0.000179651
0.00018278
0.000186099
0.00018944
0.000192678
0.000195728
0.000198536
0.000149739
0.000151845
0.000152672
0.00015304
0.000153264
0.000153464
0.00015368
0.000153919
0.000154179
0.000154454
0.000154737
0.000155021
0.000155298
0.000155565
0.000155813
0.000156038
0.000156235
0.000156401
0.000156527
0.000156564
0.000156402
0.000156231
0.000156012
0.000155748
0.000155467
0.00015521
0.000155062
0.00015511
0.00015547
0.00015627
0.000157618
0.00015958
0.000162166
0.000165301
0.000168848
0.000172632
0.000176463
0.000180185
0.000183697
0.000186927
0.00013646
0.000138902
0.000139864
0.000140279
0.000140511
0.0001407
0.000140895
0.000141107
0.000141336
0.000141577
0.000141821
0.000142064
0.000142298
0.000142517
0.000142715
0.000142885
0.000143024
0.000143126
0.000143183
0.000143076
0.000142839
0.000142576
0.000142253
0.000141885
0.000141499
0.000141139
0.0001409
0.000140881
0.00014121
0.00014203
0.000143468
0.000145608
0.000148465
0.000151967
0.000155962
0.000160249
0.000164611
0.000168864
0.000172884
0.000176582
0.000124122
0.000126864
0.000127955
0.000128417
0.000128658
0.000128838
0.000129013
0.000129199
0.000129398
0.000129604
0.000129812
0.000130015
0.000130206
0.00013038
0.000130528
0.000130647
0.000130729
0.000130771
0.000130759
0.000130499
0.000130185
0.000129831
0.00012941
0.000128943
0.000128459
0.000128007
0.000127686
0.000127607
0.000127913
0.000128762
0.000130301
0.000132632
0.00013578
0.000139673
0.000144146
0.000148972
0.000153907
0.000158737
0.000163311
0.000167512
0.000112683
0.000115681
0.00011689
0.000117398
0.000117651
0.000117824
0.000117981
0.000118144
0.000118314
0.00011849
0.000118663
0.000118829
0.000118981
0.000119111
0.000119214
0.000119282
0.000119311
0.000119293
0.000119138
0.000118799
0.000118408
0.000117968
0.000117459
0.000116901
0.000116328
0.000115796
0.000115406
0.000115281
0.000115577
0.000116471
0.00011813
0.000120673
0.000124137
0.000128451
0.000133435
0.000138839
0.000144386
0.000149833
0.000155009
0.000159661
0.000102098
0.000105303
0.000106614
0.000107168
0.000107435
0.000107604
0.000107748
0.000107891
0.000108037
0.000108185
0.000108328
0.000108461
0.000108576
0.000108667
0.000108727
0.00010875
0.000108727
0.000108651
0.00010834
0.000107937
0.000107474
0.000106953
0.000106363
0.000105725
0.000105077
0.00010448
0.000104037
0.000103885
0.000104194
0.000105158
0.000106964
0.000109752
0.00011357
0.000118342
0.000123877
0.000129896
0.000136092
0.000142197
0.000148019
0.00015314
9.23244e-05
9.56807e-05
9.7079e-05
9.7676e-05
9.79596e-05
9.81296e-05
9.82645e-05
9.8392e-05
9.85188e-05
9.86436e-05
9.87612e-05
9.88654e-05
9.89493e-05
9.90052e-05
9.90271e-05
9.90069e-05
9.8936e-05
9.8721e-05
9.8334e-05
9.78695e-05
9.73376e-05
9.67428e-05
9.60822e-05
9.53776e-05
9.46703e-05
9.4027e-05
9.35555e-05
9.34019e-05
9.37524e-05
9.4821e-05
9.68168e-05
9.9897e-05
0.000104118
0.0001094
0.000115532
0.000122208
0.00012909
0.000135888
0.000142307
0.000147986
8.33169e-05
8.67713e-05
8.82377e-05
8.88741e-05
8.91767e-05
8.93518e-05
8.94829e-05
8.96007e-05
8.97136e-05
8.9821e-05
8.99183e-05
8.99992e-05
9.00565e-05
9.00822e-05
9.00697e-05
9.00097e-05
8.98766e-05
8.95161e-05
8.90699e-05
8.85464e-05
8.79516e-05
8.72925e-05
8.65736e-05
8.58185e-05
8.50717e-05
8.44046e-05
8.39303e-05
8.38064e-05
8.42363e-05
8.54555e-05
8.76959e-05
9.11323e-05
9.58257e-05
0.000101686
0.000108476
0.000115856
0.000123463
0.000130987
0.000138001
0.00014425
7.50318e-05
7.85325e-05
8.00481e-05
8.07196e-05
8.10428e-05
8.12275e-05
8.13603e-05
8.14742e-05
8.15791e-05
8.16751e-05
8.17577e-05
8.18202e-05
8.18553e-05
8.18546e-05
8.18102e-05
8.17117e-05
8.14188e-05
8.09975e-05
8.04962e-05
7.99173e-05
7.92672e-05
7.85557e-05
7.77935e-05
7.70065e-05
7.62419e-05
7.5576e-05
7.51286e-05
7.50705e-05
7.56248e-05
7.70517e-05
7.96078e-05
8.34839e-05
8.87407e-05
9.52682e-05
0.000102794
0.000110939
0.000119312
0.000127594
0.000135212
0.000142009
6.74265e-05
7.09253e-05
7.24715e-05
7.31731e-05
7.35184e-05
7.37168e-05
7.38567e-05
7.39728e-05
7.40756e-05
7.41658e-05
7.42385e-05
7.4287e-05
7.43031e-05
7.42779e-05
7.42021e-05
7.39822e-05
7.359e-05
7.31144e-05
7.25605e-05
7.19318e-05
7.12366e-05
7.04873e-05
6.96992e-05
6.89007e-05
6.81415e-05
6.75032e-05
6.71145e-05
6.7162e-05
6.78928e-05
6.95959e-05
7.2555e-05
7.69758e-05
8.29114e-05
9.02199e-05
9.85798e-05
0.000107565
0.000116753
0.000125757
0.000134001
0.000141335
6.04594e-05
6.39132e-05
6.54727e-05
6.61993e-05
6.65675e-05
6.67835e-05
6.69357e-05
6.70594e-05
6.71655e-05
6.72547e-05
6.73217e-05
6.73588e-05
6.73571e-05
6.73067e-05
6.71522e-05
6.67954e-05
6.63433e-05
6.58145e-05
6.52121e-05
6.45422e-05
6.38152e-05
6.3045e-05
6.22502e-05
6.14613e-05
6.07309e-05
6.01468e-05
5.98494e-05
6.00453e-05
6.10108e-05
6.30698e-05
6.65364e-05
7.16295e-05
7.83861e-05
8.66168e-05
9.59346e-05
0.000105853
0.000115918
0.000125628
0.000134474
0.000142321
5.40909e-05
5.74624e-05
5.90194e-05
5.97661e-05
6.01579e-05
6.03948e-05
6.05638e-05
6.06999e-05
6.08137e-05
6.09053e-05
6.09686e-05
6.09947e-05
6.09735e-05
6.08787e-05
6.05589e-05
6.0133e-05
5.96265e-05
5.90484e-05
5.84053e-05
5.77063e-05
5.69631e-05
5.61906e-05
5.54088e-05
5.46501e-05
5.39707e-05
5.34664e-05
5.32927e-05
5.3682e-05
5.49467e-05
5.74526e-05
6.1549e-05
6.74657e-05
7.52128e-05
8.45352e-05
9.49598e-05
0.000105926
0.000116956
0.000127371
0.000136759
0.000145075
4.82825e-05
5.15412e-05
5.30822e-05
5.38445e-05
5.42601e-05
5.45206e-05
5.47099e-05
5.48621e-05
5.49863e-05
5.50818e-05
5.51407e-05
5.5153e-05
5.51067e-05
5.48312e-05
5.44337e-05
5.39503e-05
5.3393e-05
5.27731e-05
5.21011e-05
5.13879e-05
5.06458e-05
4.98894e-05
4.91394e-05
4.84299e-05
4.78216e-05
4.74208e-05
4.74027e-05
4.80321e-05
4.96665e-05
5.27223e-05
5.75892e-05
6.45054e-05
7.34404e-05
8.40517e-05
9.57567e-05
0.000107905
0.000119958
0.000131057
0.000140949
0.000149705
4.29975e-05
4.61196e-05
4.76337e-05
4.84078e-05
4.88473e-05
4.91331e-05
4.93452e-05
4.95153e-05
4.96504e-05
4.97482e-05
4.97989e-05
4.97902e-05
4.95719e-05
4.92028e-05
4.87423e-05
4.82045e-05
4.76037e-05
4.69541e-05
4.62682e-05
4.55577e-05
4.48339e-05
4.41108e-05
4.34089e-05
4.27646e-05
4.22446e-05
4.19687e-05
4.21373e-05
4.30556e-05
4.5137e-05
4.88585e-05
5.46562e-05
6.27724e-05
7.31199e-05
8.52431e-05
9.8424e-05
0.0001119
0.000124979
0.000136766
0.000147141
0.000156318
3.82004e-05
4.11695e-05
4.26485e-05
4.34311e-05
4.38941e-05
4.42062e-05
4.44418e-05
4.46293e-05
4.47728e-05
4.48678e-05
4.49015e-05
4.47466e-05
4.44074e-05
4.39672e-05
4.34465e-05
4.28617e-05
4.22297e-05
4.15659e-05
4.08831e-05
4.01917e-05
3.95019e-05
3.88264e-05
3.81859e-05
3.76193e-05
3.72014e-05
3.70693e-05
3.74551e-05
3.87143e-05
4.13275e-05
4.58447e-05
5.27537e-05
6.22953e-05
7.43053e-05
8.81856e-05
0.000103057
0.000118043
0.000132154
0.000144591
0.000155428
0.000165025
3.38576e-05
3.66637e-05
3.81021e-05
3.88906e-05
3.93763e-05
3.9714e-05
3.99717e-05
4.01734e-05
4.0319e-05
4.04015e-05
4.03204e-05
4.00179e-05
3.95972e-05
3.90904e-05
3.8518e-05
3.78993e-05
3.72524e-05
3.65916e-05
3.59282e-05
3.52709e-05
3.46279e-05
3.40108e-05
3.34407e-05
3.29605e-05
3.26553e-05
3.2684e-05
3.33175e-05
3.49728e-05
3.82117e-05
4.36696e-05
5.18916e-05
6.3108e-05
7.70531e-05
9.29527e-05
0.00010974
0.000126416
0.0001415
0.000154573
0.00016588
0.000175922
2.99365e-05
3.25756e-05
3.39705e-05
3.47628e-05
3.52696e-05
3.56309e-05
3.59065e-05
3.61155e-05
3.62526e-05
3.62605e-05
3.60027e-05
3.56067e-05
3.51135e-05
3.45501e-05
3.39406e-05
3.33057e-05
3.26617e-05
3.20207e-05
3.13914e-05
3.078e-05
3.01929e-05
2.96408e-05
2.91462e-05
2.87572e-05
2.85722e-05
2.87767e-05
2.96893e-05
3.18004e-05
3.57684e-05
4.23279e-05
5.20852e-05
6.5248e-05
8.14191e-05
9.96103e-05
0.00011853
0.000136865
0.000152977
0.000166724
0.000178552
0.000189088
2.64061e-05
2.88794e-05
3.02296e-05
3.1024e-05
3.15493e-05
3.19297e-05
3.22161e-05
3.24215e-05
3.25338e-05
3.23339e-05
3.19697e-05
3.14944e-05
3.094e-05
3.03369e-05
2.97099e-05
2.90781e-05
2.84548e-05
2.78485e-05
2.72647e-05
2.67072e-05
2.61808e-05
2.56962e-05
2.52779e-05
2.49814e-05
2.49213e-05
2.53155e-05
2.65395e-05
2.91711e-05
3.39817e-05
4.18186e-05
5.33525e-05
6.87513e-05
8.7451e-05
0.000108212
0.000129513
0.000149433
0.000166579
0.000181052
0.000193482
0.000204575
2.32363e-05
2.55493e-05
2.68551e-05
2.76494e-05
2.81894e-05
2.8582e-05
2.88685e-05
2.90552e-05
2.89744e-05
2.86605e-05
2.82113e-05
2.767e-05
2.70735e-05
2.64527e-05
2.58303e-05
2.5221e-05
2.4634e-05
2.4074e-05
2.35432e-05
2.30434e-05
2.25785e-05
2.21595e-05
2.18148e-05
2.16088e-05
2.1676e-05
2.22728e-05
2.38419e-05
2.70633e-05
3.28389e-05
4.21424e-05
5.57086e-05
7.36441e-05
9.5177e-05
0.000118772
0.000142632
0.000164019
0.000182233
0.000197531
0.000210675
0.000222384
2.03994e-05
2.256e-05
2.3821e-05
2.46124e-05
2.51622e-05
2.55576e-05
2.58299e-05
2.58991e-05
2.56499e-05
2.52416e-05
2.47211e-05
2.41351e-05
2.35217e-05
2.29082e-05
2.23121e-05
2.1743e-05
2.12049e-05
2.06989e-05
2.02245e-05
1.9782e-05
1.93749e-05
1.90162e-05
1.87388e-05
1.86185e-05
1.88135e-05
1.96251e-05
2.15742e-05
2.54587e-05
3.23282e-05
4.32958e-05
5.91568e-05
7.99303e-05
0.000104593
0.000131259
0.000157421
0.00018043
0.000199833
0.000216106
0.00023009
0.000242446
1.78682e-05
1.98848e-05
2.1101e-05
2.18871e-05
2.24393e-05
2.28249e-05
2.30652e-05
2.29197e-05
2.25616e-05
2.20729e-05
2.15041e-05
2.09019e-05
2.03e-05
1.9719e-05
1.91693e-05
1.86546e-05
1.81742e-05
1.77256e-05
1.73067e-05
1.69168e-05
1.65604e-05
1.6253e-05
1.60339e-05
1.59924e-05
1.63139e-05
1.73521e-05
1.97168e-05
2.43391e-05
3.24338e-05
4.52633e-05
6.36767e-05
8.75742e-05
0.000115644
0.000145692
0.000173883
0.000198526
0.000219252
0.000236684
0.000251621
0.00026464
1.56156e-05
1.74972e-05
1.86691e-05
1.9447e-05
1.99911e-05
2.03521e-05
2.0411e-05
2.01447e-05
1.97025e-05
1.91603e-05
1.85752e-05
1.79891e-05
1.74274e-05
1.69018e-05
1.64152e-05
1.59649e-05
1.55462e-05
1.51542e-05
1.47855e-05
1.44401e-05
1.4124e-05
1.38565e-05
1.36847e-05
1.37133e-05
1.41593e-05
1.54351e-05
1.82503e-05
2.3684e-05
3.31304e-05
4.80085e-05
6.92099e-05
9.64798e-05
0.00012813
0.000161121
0.000191611
0.000218048
0.000240301
0.000259117
0.000275032
0.000288162
1.3616e-05
1.53715e-05
1.64995e-05
1.72648e-05
1.77877e-05
1.8081e-05
1.79415e-05
1.75793e-05
1.70787e-05
1.65186e-05
1.59539e-05
1.54169e-05
1.49219e-05
1.44708e-05
1.40587e-05
1.36778e-05
1.332e-05
1.29792e-05
1.2652e-05
1.23397e-05
1.20512e-05
1.18106e-05
1.16737e-05
1.17634e-05
1.23313e-05
1.38549e-05
1.71534e-05
2.34657e-05
3.43766e-05
5.14634e-05
7.56447e-05
0.00010649
0.000141951
0.000177566
0.000210333
0.000238699
0.000262726
0.000282916
0.000299293
0.000312995
1.1845e-05
1.3483e-05
1.45679e-05
1.53124e-05
1.58003e-05
1.59115e-05
1.56606e-05
1.52271e-05
1.47042e-05
1.41672e-05
1.36603e-05
1.32026e-05
1.27959e-05
1.24324e-05
1.21005e-05
1.17882e-05
1.14856e-05
1.11865e-05
1.08889e-05
1.05964e-05
1.03214e-05
1.00939e-05
9.97991e-06
1.01217e-05
1.08093e-05
1.25901e-05
1.64002e-05
2.36465e-05
3.61093e-05
5.55181e-05
8.2794e-05
0.00011726
0.000155955
0.000194417
0.000229568
0.000260071
0.000286031
0.000306721
0.000324365
0.000338783
1.02799e-05
1.18081e-05
1.28508e-05
1.35622e-05
1.39773e-05
1.39014e-05
1.35665e-05
1.3099e-05
1.25975e-05
1.21254e-05
1.17105e-05
1.13563e-05
1.10524e-05
1.07824e-05
1.05295e-05
1.02792e-05
1.00215e-05
9.75136e-06
9.46911e-06
9.18174e-06
8.90621e-06
8.67876e-06
8.5767e-06
8.76333e-06
9.56902e-06
1.1615e-05
1.59582e-05
2.41758e-05
3.82396e-05
6.00175e-05
9.04075e-05
0.000128405
0.000170022
0.000211181
0.000248735
0.000281701
0.000308377
0.000330456
0.000349664
0.000364976
8.89974e-06
1.03256e-05
1.13237e-05
1.19899e-05
1.22346e-05
1.20529e-05
1.16669e-05
1.12115e-05
1.07774e-05
1.04082e-05
1.01122e-05
9.87715e-06
9.6818e-06
9.50322e-06
9.32132e-06
9.12121e-06
8.89409e-06
8.63748e-06
8.35524e-06
8.05847e-06
7.76916e-06
7.53059e-06
7.43184e-06
7.65823e-06
8.58201e-06
1.08994e-05
1.57877e-05
2.49893e-05
4.06525e-05
6.47566e-05
9.81379e-05
0.000139008
0.000183454
0.000227116
0.000266918
0.000302059
0.000329291
0.000353259
0.000374201
0.000390822
7.68512e-06
9.01622e-06
9.96291e-06
1.05715e-05
1.06246e-05
1.03677e-05
9.97584e-06
9.5827e-06
9.25839e-06
9.02193e-06
8.86151e-06
8.75099e-06
8.66066e-06
8.56351e-06
8.43857e-06
8.27222e-06
8.05853e-06
7.79878e-06
7.50117e-06
7.18152e-06
6.86728e-06
6.60911e-06
6.50821e-06
6.77238e-06
7.81589e-06
1.04087e-05
1.5843e-05
2.60126e-05
4.32135e-05
6.9478e-05
0.000105415
0.000148805
0.000195665
0.000241457
0.000283291
0.00031947
0.000347896
0.000373711
0.000396503
0.000415228
6.61832e-06
7.86092e-06
8.74837e-06
9.20566e-06
9.14991e-06
8.85668e-06
8.51118e-06
8.22783e-06
8.04687e-06
7.96131e-06
7.94134e-06
7.95002e-06
7.95236e-06
7.91993e-06
7.83298e-06
7.68097e-06
7.46208e-06
7.18237e-06
6.85503e-06
6.50103e-06
6.15352e-06
5.87065e-06
5.76582e-06
6.06917e-06
7.23591e-06
1.01057e-05
1.6075e-05
2.7167e-05
4.57945e-05
7.39981e-05
0.000111884
0.000157328
0.000206015
0.000253305
0.000296428
0.000333034
0.000362651
0.000389858
0.000414406
0.000436334
0.000423415
0.000423522
0.000423616
0.000423701
0.000423776
0.000423841
0.000423894
0.000423935
0.000423964
0.000423979
0.000423979
0.000423964
0.000423935
0.000423894
0.000423841
0.000423776
0.000423701
0.000423616
0.000423522
0.000423415
0.000399799
0.000399994
0.00040017
0.00040032
0.000400455
0.000400575
0.000400675
0.000400754
0.000400809
0.000400842
0.000400842
0.000400809
0.000400754
0.000400675
0.000400575
0.000400455
0.00040032
0.00040017
0.000399994
0.000399799
0.000376948
0.000377244
0.000377514
0.000377756
0.000377965
0.000378152
0.000378312
0.000378439
0.000378529
0.000378581
0.000378581
0.000378529
0.000378439
0.000378312
0.000378152
0.000377965
0.000377756
0.000377514
0.000377244
0.000376948
0.000354902
0.000355315
0.000355693
0.000356049
0.000356355
0.000356627
0.000356863
0.000357052
0.000357187
0.000357265
0.000357265
0.000357187
0.000357052
0.000356863
0.000356627
0.000356355
0.000356049
0.000355693
0.000355315
0.000354902
0.000333704
0.000334251
0.000334755
0.00033523
0.00033567
0.000336044
0.000336372
0.000336637
0.000336827
0.000336938
0.000336938
0.000336827
0.000336637
0.000336372
0.000336044
0.00033567
0.00033523
0.000334755
0.000334251
0.000333704
0.000313406
0.000314103
0.000314747
0.000315358
0.000315949
0.000316442
0.000316876
0.00031723
0.000317485
0.000317633
0.000317633
0.000317485
0.00031723
0.000316876
0.000316442
0.000315949
0.000315358
0.000314747
0.000314103
0.000313406
0.000294061
0.000294925
0.000295724
0.000296482
0.000297217
0.00029786
0.000298413
0.000298865
0.000299193
0.000299382
0.000299382
0.000299193
0.000298865
0.000298413
0.00029786
0.000297217
0.000296482
0.000295724
0.000294925
0.000294061
0.000275727
0.000276774
0.000277741
0.000278657
0.000279544
0.000280339
0.000281021
0.000281579
0.000281985
0.000282221
0.000282221
0.000281985
0.000281579
0.000281021
0.000280339
0.000279544
0.000278657
0.000277741
0.000276774
0.000275727
0.000258461
0.000259707
0.000260854
0.000261938
0.000262986
0.000263921
0.00026474
0.000265413
0.000265902
0.000266186
0.000266186
0.000265902
0.000265413
0.00026474
0.000263921
0.000262986
0.000261938
0.000260854
0.000259707
0.000258461
0.000242316
0.000243779
0.000245119
0.000246382
0.000247578
0.000248655
0.000249617
0.000250408
0.000250985
0.000251319
0.000251319
0.000250985
0.000250408
0.000249617
0.000248655
0.000247578
0.000246382
0.000245119
0.000243779
0.000242316
0.000227341
0.000229041
0.00023059
0.00023204
0.000233349
0.000234587
0.000235697
0.000236611
0.000237279
0.000237666
0.000237666
0.000237279
0.000236611
0.000235697
0.000234587
0.000233349
0.00023204
0.00023059
0.000229041
0.000227341
0.000213579
0.00021554
0.000217313
0.000218884
0.00022036
0.000221766
0.000223028
0.000224069
0.00022483
0.000225272
0.000225272
0.00022483
0.000224069
0.000223028
0.000221766
0.00022036
0.000218884
0.000217313
0.00021554
0.000213579
0.000201065
0.000203313
0.000205236
0.000206991
0.000208657
0.000210238
0.000211655
0.000212826
0.000213682
0.00021418
0.00021418
0.000213682
0.000212826
0.000211655
0.000210238
0.000208657
0.000206991
0.000205236
0.000203313
0.000201065
0.000189829
0.000192291
0.00019444
0.000196415
0.000198283
0.000200045
0.000201622
0.000202924
0.000203877
0.000204433
0.000204433
0.000203877
0.000202924
0.000201622
0.000200045
0.000198283
0.000196415
0.00019444
0.000192291
0.000189829
0.000179815
0.000182556
0.000184977
0.000187193
0.000189276
0.000191227
0.000192968
0.000194403
0.000195454
0.000196067
0.000196067
0.000195454
0.000194403
0.000192968
0.000191227
0.000189276
0.000187193
0.000184977
0.000182556
0.000179815
0.000171077
0.000174157
0.000176878
0.000179357
0.000181669
0.000183818
0.000185727
0.000187297
0.000188445
0.000189116
0.000189116
0.000188445
0.000187297
0.000185727
0.000183818
0.000181669
0.000179357
0.000176878
0.000174157
0.000171077
0.00016366
0.000167119
0.000170167
0.000172932
0.000175491
0.000177849
0.000179931
0.000181636
0.00018288
0.000183607
0.000183607
0.00018288
0.000181636
0.000179931
0.000177849
0.000175491
0.000172932
0.000170167
0.000167119
0.00016366
0.000157601
0.000161467
0.000164871
0.000167946
0.000170772
0.00017335
0.000175609
0.000177448
0.000178788
0.000179569
0.000179569
0.000178788
0.000177448
0.000175609
0.00017335
0.000170772
0.000167946
0.000164871
0.000161467
0.000157601
0.000152934
0.00015723
0.000161017
0.00016443
0.000167543
0.000170354
0.000172792
0.000174765
0.000176195
0.000177028
0.000177028
0.000176195
0.000174765
0.000172792
0.000170354
0.000167544
0.00016443
0.000161017
0.00015723
0.000152934
0.0001497
0.000154447
0.000158644
0.000162421
0.000165842
0.000168896
0.000171515
0.000173617
0.000175134
0.000176015
0.000176015
0.000175134
0.000173617
0.000171515
0.000168896
0.000165842
0.000162421
0.000158644
0.000154447
0.0001497
0.000147958
0.00015317
0.000157799
0.000161966
0.000165714
0.000169018
0.000171817
0.000174043
0.00017564
0.000176563
0.000176563
0.00017564
0.000174043
0.000171817
0.000169018
0.000165714
0.000161966
0.000157799
0.00015317
0.000147958
0.000147777
0.000153463
0.000158547
0.000163125
0.000167213
0.000170772
0.000173746
0.000176086
0.000177754
0.000178714
0.000178714
0.000177755
0.000176086
0.000173746
0.000170772
0.000167213
0.000163125
0.000158547
0.000153463
0.000147777
0.000149245
0.00015541
0.000160965
0.00016597
0.000170404
0.000174213
0.000177352
0.000179795
0.000181524
0.000182513
0.000182513
0.000181524
0.000179795
0.000177352
0.000174214
0.000170404
0.00016597
0.000160965
0.00015541
0.000149245
0.000152462
0.00015911
0.000165147
0.000170584
0.000175359
0.000179405
0.000182691
0.00018522
0.000186997
0.000188006
0.000188006
0.000186997
0.00018522
0.000182691
0.000179405
0.000175359
0.000170585
0.000165147
0.00015911
0.000152462
0.000157542
0.000164674
0.000171194
0.000177055
0.000182149
0.000186405
0.000189813
0.000192406
0.000194214
0.000195232
0.000195232
0.000194214
0.000192406
0.000189813
0.000186405
0.000182149
0.000177055
0.000171194
0.000164674
0.000157542
0.000164603
0.000172218
0.00017921
0.000185463
0.000190835
0.00019526
0.000198753
0.000201383
0.000203201
0.000204217
0.000204217
0.000203201
0.000201383
0.000198754
0.00019526
0.000190835
0.000185463
0.00017921
0.000172218
0.000164603
0.000173762
0.000181853
0.000189284
0.000195873
0.000201457
0.000205991
0.000209523
0.000212153
0.000213957
0.000214957
0.000214957
0.000213957
0.000212153
0.000209523
0.000205991
0.000201457
0.000195873
0.000189284
0.000181853
0.000173763
0.000185125
0.000193666
0.000201475
0.00020831
0.000214014
0.00021858
0.00022209
0.000224676
0.000226437
0.000227406
0.000227406
0.000226437
0.000224676
0.00022209
0.000218581
0.000214015
0.00020831
0.000201475
0.000193666
0.000185125
0.000198766
0.000207706
0.000215792
0.000222746
0.000228451
0.000232952
0.000236367
0.000238857
0.00024054
0.000241461
0.000241461
0.00024054
0.000238857
0.000236367
0.000232953
0.000228451
0.000222746
0.000215792
0.000207706
0.000198766
0.000214715
0.000223953
0.000232169
0.000239078
0.000244638
0.000248964
0.000252199
0.000254533
0.000256102
0.000256957
0.000256957
0.000256102
0.000254533
0.000252199
0.000248964
0.000244639
0.000239078
0.000232169
0.000223954
0.000214715
0.00023293
0.000242305
0.000250463
0.000257125
0.000262368
0.000266381
0.000269353
0.000271478
0.000272895
0.000273665
0.000273665
0.000272895
0.000271478
0.000269353
0.000266381
0.000262368
0.000257125
0.000250463
0.000242305
0.00023293
0.000253304
0.00026258
0.000270328
0.000276548
0.000281351
0.000284952
0.000287575
0.000289426
0.000290647
0.00029131
0.00029131
0.000290647
0.000289426
0.000287575
0.000284952
0.000281351
0.000276548
0.000270328
0.000262581
0.000253304
0.000275383
0.0002843
0.000291505
0.000297103
0.000301303
0.000304367
0.000306549
0.00030806
0.000309046
0.000309583
0.000309583
0.000309046
0.00030806
0.000306549
0.000304367
0.000301303
0.000297103
0.000291505
0.000284301
0.000275383
0.000298895
0.000307268
0.000313681
0.000318437
0.000321863
0.000324272
0.000325933
0.000327056
0.000327779
0.000328175
0.000328175
0.000327779
0.000327056
0.000325933
0.000324272
0.000321863
0.000318437
0.000313681
0.000307268
0.000298895
0.000323606
0.000331124
0.000336452
0.000340145
0.000342649
0.000344313
0.000345403
0.000346111
0.00034656
0.000346813
0.000346813
0.00034656
0.000346111
0.000345403
0.000344313
0.000342649
0.000340145
0.000336452
0.000331124
0.000323606
0.000349157
0.000355443
0.000359377
0.000361811
0.000363291
0.000364169
0.000364679
0.000364978
0.000365163
0.000365281
0.000365281
0.000365163
0.000364978
0.000364679
0.000364169
0.000363291
0.000361811
0.000359377
0.000355443
0.000349157
0.000375173
0.000379771
0.000381994
0.000383029
0.000383456
0.000383572
0.000383547
0.000383481
0.000383436
0.000383438
0.000383438
0.000383436
0.000383481
0.000383547
0.000383572
0.000383456
0.000383029
0.000381994
0.000379771
0.000375174
0.000401381
0.000403624
0.000403814
0.000403404
0.000402857
0.000402325
0.00040187
0.000401524
0.000401306
0.000401222
0.000401222
0.000401306
0.000401524
0.00040187
0.000402325
0.000402857
0.000403404
0.000403814
0.000403624
0.000401381
0.000427906
0.000426397
0.000424256
0.000422546
0.000421262
0.0004203
0.000419588
0.000419087
0.000418778
0.00041865
0.00041865
0.000418778
0.000419087
0.000419588
0.0004203
0.000421262
0.000422546
0.000424256
0.000426397
0.000427906
0.000456718
0.000446897
0.000442532
0.000440083
0.00043853
0.000437473
0.000436737
0.000436237
0.000435931
0.000435806
0.000435806
0.000435931
0.000436237
0.000436737
0.000437473
0.00043853
0.000440083
0.000442532
0.000446897
0.000456718
0.000423297
0.000423168
0.00042303
0.000422884
0.00042273
0.000422567
0.000422399
0.000422229
0.000422058
0.000421891
0.000421727
0.000421566
0.000421408
0.000421254
0.000421101
0.00042095
0.0004208
0.000420651
0.000420504
0.000420355
0.000420209
0.000420068
0.000419931
0.000419799
0.000419673
0.000419552
0.000419438
0.00041933
0.00041923
0.000419136
0.00041905
0.000418972
0.000418901
0.000418839
0.000418785
0.000418728
0.00041866
0.00041859
0.000418611
0.000418745
0.000399584
0.000399348
0.000399093
0.000398821
0.000398535
0.000398234
0.000397928
0.000397622
0.000397321
0.000397031
0.000396754
0.00039649
0.000396237
0.000395992
0.000395753
0.000395516
0.000395281
0.000395046
0.000394811
0.000394563
0.00039432
0.000394083
0.000393854
0.000393632
0.00039342
0.000393216
0.000393023