/*--------------------------------*- C++ -*----------------------------------*\
  =========                 |
  \\      /  F ield         | OpenFOAM: The Open Source CFD Toolbox
   \\    /   O peration     | Website:  https://openfoam.org
    \\  /    A nd           | Version:  6
     \\/     M anipulation  |
\*---------------------------------------------------------------------------*/
FoamFile
{
    version     2.0;
    format      ascii;
    class       volVectorField;
    location    "20";
    object      U;
}
// * * * * * * * * * * * * * * * * * * * * * * * * * * * * * * * * * * * * * //

dimensions      [0 1 -1 0 0 0 0];

internalField   nonuniform List<vector> 
8800
(
(-5.44403e-05 -0.0019332 0)
(-9.76925e-05 -0.00262215 0)
(-7.47422e-05 -0.0027178 0)
(-5.29011e-05 -0.00273122 0)
(-4.43503e-05 -0.0027334 0)
(-4.37785e-05 -0.00273251 0)
(-4.68707e-05 -0.00273072 0)
(-5.17215e-05 -0.00272979 0)
(-5.75674e-05 -0.00272962 0)
(-6.39966e-05 -0.00273001 0)
(-7.07535e-05 -0.00273086 0)
(-7.76649e-05 -0.00273211 0)
(-8.45963e-05 -0.00273375 0)
(-9.14259e-05 -0.0027358 0)
(-9.80321e-05 -0.00273826 0)
(-0.000104286 -0.00274117 0)
(-0.000110048 -0.00274456 0)
(-0.000115167 -0.00274845 0)
(-0.000119479 -0.00275289 0)
(-0.000122818 -0.00275788 0)
(-0.000125029 -0.00276338 0)
(-0.000125966 -0.00276913 0)
(-0.000125415 -0.0027741 0)
(-0.000122949 -0.00277904 0)
(-0.000118282 -0.00278433 0)
(-0.000111187 -0.00279009 0)
(-0.000101533 -0.00279637 0)
(-8.93595e-05 -0.00280317 0)
(-7.49285e-05 -0.00281048 0)
(-5.87442e-05 -0.00281821 0)
(-4.154e-05 -0.00282623 0)
(-2.42315e-05 -0.00283437 0)
(-7.86069e-06 -0.00284232 0)
(6.81772e-06 -0.00284903 0)
(1.93119e-05 -0.00285431 0)
(2.94595e-05 -0.00285786 0)
(3.75088e-05 -0.0028596 0)
(4.37866e-05 -0.00286092 0)
(4.8295e-05 -0.00286243 0)
(5.11409e-05 -0.00286414 0)
(2.17928e-05 0.000108234 0)
(2.48195e-05 0.000141222 0)
(-2.0506e-05 0.000166727 0)
(-5.68784e-05 0.000186251 0)
(-8.168e-05 0.000198724 0)
(-0.000102334 0.000205496 0)
(-0.000121901 0.000209039 0)
(-0.000141294 0.000211766 0)
(-0.00016084 0.000214175 0)
(-0.000180583 0.000216395 0)
(-0.000200403 0.000218466 0)
(-0.000220108 0.000220398 0)
(-0.000239475 0.000222179 0)
(-0.000258251 0.000223785 0)
(-0.00027616 0.000225183 0)
(-0.000292898 0.000226333 0)
(-0.000308134 0.000227191 0)
(-0.000321516 0.000227713 0)
(-0.000332673 0.000227854 0)
(-0.000341227 0.00022758 0)
(-0.000346783 0.000226852 0)
(-0.00034892 0.000225532 0)
(-0.00034745 0.000223007 0)
(-0.000341843 0.000219404 0)
(-0.000331532 0.000214879 0)
(-0.000316091 0.000209568 0)
(-0.000295332 0.000203716 0)
(-0.000269381 0.000197703 0)
(-0.000238735 0.000191992 0)
(-0.00020428 0.000187089 0)
(-0.000167249 0.00018346 0)
(-0.000129089 0.000181429 0)
(-9.12583e-05 0.000181301 0)
(-5.52393e-05 0.00018337 0)
(-2.23183e-05 0.000187397 0)
(6.70224e-06 0.000192932 0)
(3.08326e-05 0.000199184 0)
(5.00296e-05 0.000205106 0)
(6.47537e-05 0.000210118 0)
(7.5543e-05 0.000214171 0)
(1.50522e-05 0.000168517 0)
(1.01021e-05 0.000224267 0)
(-3.73469e-05 0.000224855 0)
(-8.55937e-05 0.000222349 0)
(-0.000125984 0.000221827 0)
(-0.000162004 0.000222004 0)
(-0.000196145 0.000222153 0)
(-0.000229358 0.00022212 0)
(-0.000261968 0.000221768 0)
(-0.000294054 0.000221031 0)
(-0.000325535 0.000219885 0)
(-0.000356217 0.000218319 0)
(-0.00038583 0.000216315 0)
(-0.000414049 0.000213848 0)
(-0.000440503 0.000210884 0)
(-0.000464782 0.000207388 0)
(-0.000486444 0.000203326 0)
(-0.000505022 0.000198669 0)
(-0.000520031 0.000193408 0)
(-0.000530977 0.000187556 0)
(-0.000537371 0.000181144 0)
(-0.000538806 0.000174088 0)
(-0.000535068 0.000165912 0)
(-0.000525656 0.000156689 0)
(-0.000510097 0.000146678 0)
(-0.000488055 0.000136306 0)
(-0.00045948 0.000126178 0)
(-0.00042467 0.000117071 0)
(-0.000384307 0.000109824 0)
(-0.000339453 0.000105252 0)
(-0.000291513 0.000103995 0)
(-0.000242114 0.000106327 0)
(-0.00019295 0.000112162 0)
(-0.000145691 0.000120836 0)
(-0.000101812 0.000131415 0)
(-6.22992e-05 0.000142742 0)
(-2.77166e-05 0.00015368 0)
(1.85696e-06 0.000163691 0)
(2.64057e-05 0.000172444 0)
(4.6237e-05 0.000179934 0)
(-4.60962e-06 5.0893e-05 0)
(-2.83601e-05 7.97828e-05 0)
(-7.2326e-05 7.84203e-05 0)
(-0.000121226 7.31781e-05 0)
(-0.000169322 6.97126e-05 0)
(-0.000216022 6.7975e-05 0)
(-0.000261478 6.71857e-05 0)
(-0.0003058 6.67333e-05 0)
(-0.000348999 6.61712e-05 0)
(-0.000391011 6.52079e-05 0)
(-0.000431684 6.36585e-05 0)
(-0.000470783 6.13945e-05 0)
(-0.000507999 5.83106e-05 0)
(-0.000542967 5.43096e-05 0)
(-0.000575275 4.9299e-05 0)
(-0.000604478 4.31931e-05 0)
(-0.000630104 3.59152e-05 0)
(-0.000651667 2.74051e-05 0)
(-0.000668679 1.76342e-05 0)
(-0.000680664 6.62894e-06 0)
(-0.000687193 -5.50907e-06 0)
(-0.000687935 -1.86044e-05 0)
(-0.000682447 -3.25544e-05 0)
(-0.000670335 -4.80126e-05 0)
(-0.000651292 -6.47257e-05 0)
(-0.000625171 -8.20863e-05 0)
(-0.000592072 -9.92334e-05 0)
(-0.000552403 -0.000115091 0)
(-0.000506911 -0.000128494 0)
(-0.000456682 -0.000138311 0)
(-0.000403108 -0.000143629 0)
(-0.000347793 -0.000143998 0)
(-0.000292429 -0.000139426 0)
(-0.000238649 -0.000130603 0)
(-0.000187878 -0.000118584 0)
(-0.000141177 -0.000104634 0)
(-9.92205e-05 -9.01265e-05 0)
(-6.23088e-05 -7.60108e-05 0)
(-3.04791e-05 -6.28657e-05 0)
(-3.56221e-06 -5.09964e-05 0)
(-1.05688e-05 6.48381e-05 0)
(-4.31281e-05 0.00011275 0)
(-9.20065e-05 0.000125163 0)
(-0.000146627 0.000125692 0)
(-0.000202319 0.000123756 0)
(-0.000257585 0.000122016 0)
(-0.000311751 0.000120753 0)
(-0.000364484 0.00011964 0)
(-0.000415582 0.000118289 0)
(-0.000464859 0.000116377 0)
(-0.000512093 0.000113656 0)
(-0.00055701 0.000109928 0)
(-0.000599282 0.000105027 0)
(-0.000638536 9.88063e-05 0)
(-0.000674366 9.11342e-05 0)
(-0.00070634 8.18975e-05 0)
(-0.000734013 7.1003e-05 0)
(-0.000756936 5.83857e-05 0)
(-0.000774672 4.40248e-05 0)
(-0.000786812 2.79653e-05 0)
(-0.000792996 1.03248e-05 0)
(-0.00079289 -8.76348e-06 0)
(-0.000785983 -2.95008e-05 0)
(-0.000771981 -5.21738e-05 0)
(-0.000750688 -7.6369e-05 0)
(-0.000722089 -0.000101277 0)
(-0.000686378 -0.000125782 0)
(-0.000644005 -0.000148502 0)
(-0.000595719 -0.000167949 0)
(-0.000542578 -0.000182674 0)
(-0.000485926 -0.000191496 0)
(-0.000427325 -0.000193794 0)
(-0.000368432 -0.00018952 0)
(-0.000310861 -0.000179448 0)
(-0.000256029 -0.000164851 0)
(-0.000205046 -0.000147316 0)
(-0.000158664 -0.000128534 0)
(-0.000117287 -0.000109699 0)
(-8.10532e-05 -9.15991e-05 0)
(-4.99109e-05 -7.47365e-05 0)
(-1.12194e-05 9.78278e-05 0)
(-4.74926e-05 0.000170529 0)
(-0.000102399 0.000193192 0)
(-0.000163198 0.000197423 0)
(-0.000225013 0.000196077 0)
(-0.000286382 0.000193489 0)
(-0.000346473 0.000190701 0)
(-0.000404776 0.000187687 0)
(-0.00046096 0.000184169 0)
(-0.000514755 0.000179842 0)
(-0.000565886 0.000174434 0)
(-0.000614055 0.000167709 0)
(-0.000658932 0.000159465 0)
(-0.000700162 0.000149523 0)
(-0.000737367 0.00013773 0)
(-0.000770156 0.00012396 0)
(-0.000798132 0.000108118 0)
(-0.000820905 9.01484e-05 0)
(-0.000838094 7.00522e-05 0)
(-0.000849349 4.79038e-05 0)
(-0.000854363 2.38465e-05 0)
(-0.000852785 -2.01169e-06 0)
(-0.000844156 -2.997e-05 0)
(-0.000828282 -6.00393e-05 0)
(-0.000805019 -9.16469e-05 0)
(-0.00077441 -0.000123811 0)
(-0.000736679 -0.000155197 0)
(-0.000692281 -0.000184156 0)
(-0.000641951 -0.000208902 0)
(-0.000586728 -0.000227688 0)
(-0.000527954 -0.000239069 0)
(-0.000467208 -0.000242272 0)
(-0.000406189 -0.000237208 0)
(-0.000346566 -0.000224785 0)
(-0.000289811 -0.000206542 0)
(-0.000237084 -0.000184419 0)
(-0.000189159 -0.000160494 0)
(-0.000146439 -0.000136261 0)
(-0.000109056 -0.000112738 0)
(-7.69273e-05 -9.05777e-05 0)
(-1.14791e-05 0.000125817 0)
(-4.9657e-05 0.00022153 0)
(-0.000107936 0.000253122 0)
(-0.000172225 0.000260438 0)
(-0.000237415 0.000259447 0)
(-0.000302034 0.000255825 0)
(-0.000365158 0.000251251 0)
(-0.000426173 0.00024599 0)
(-0.000484664 0.000239885 0)
(-0.000540303 0.000232673 0)
(-0.000592779 0.00022408 0)
(-0.000641786 0.000213858 0)
(-0.000687006 0.000201786 0)
(-0.000728111 0.000187666 0)
(-0.000764765 0.000171336 0)
(-0.000796629 0.000152664 0)
(-0.000823365 0.000131559 0)
(-0.000844639 0.000107974 0)
(-0.000860129 8.19267e-05 0)
(-0.000869544 5.35119e-05 0)
(-0.000872626 2.28939e-05 0)
(-0.00086898 -9.81164e-06 0)
(-0.000858249 -4.49556e-05 0)
(-0.000840261 -8.23498e-05 0)
(-0.000814897 -0.000121278 0)
(-0.000782215 -0.000160612 0)
(-0.000742435 -0.000198828 0)
(-0.000695995 -0.000234024 0)
(-0.000643621 -0.000264122 0)
(-0.00058637 -0.000287063 0)
(-0.000525633 -0.000301108 0)
(-0.000463083 -0.0003053 0)
(-0.000400547 -0.000299477 0)
(-0.000339831 -0.000284678 0)
(-0.000282525 -0.000262702 0)
(-0.000229872 -0.000235858 0)
(-0.000182654 -0.000206658 0)
(-0.000141211 -0.000176921 0)
(-0.000105583 -0.000147923 0)
(-7.55495e-05 -0.000120514 0)
(-1.15046e-05 0.000153343 0)
(-5.00044e-05 0.000272568 0)
(-0.000108876 0.000313669 0)
(-0.000173786 0.000324342 0)
(-0.000239567 0.00032379 0)
(-0.000304682 0.000319109 0)
(-0.000368126 0.000312631 0)
(-0.000429211 0.000304927 0)
(-0.000487471 0.000295979 0)
(-0.000542539 0.000285585 0)
(-0.000594088 0.000273497 0)
(-0.000641812 0.000259471 0)
(-0.000685412 0.000243284 0)
(-0.000724595 0.00022474 0)
(-0.00075907 0.000203672 0)
(-0.00078855 0.000179953 0)
(-0.000812753 0.000153496 0)
(-0.000831402 0.000124263 0)
(-0.000844229 9.22806e-05 0)
(-0.000851 5.76503e-05 0)
(-0.000851487 2.05328e-05 0)
(-0.000845195 -1.89777e-05 0)
(-0.000831923 -6.12891e-05 0)
(-0.000811431 -0.00010599 0)
(-0.000783609 -0.000152233 0)
(-0.000748499 -0.000198752 0)
(-0.000706297 -0.000243846 0)
(-0.000657424 -0.000285349 0)
(-0.000602614 -0.000320865 0)
(-0.000542972 -0.000347982 0)
(-0.000479993 -0.000364617 0)
(-0.000415515 -0.000369583 0)
(-0.000351565 -0.000362617 0)
(-0.000290171 -0.000344906 0)
(-0.000233093 -0.000318543 0)
(-0.000181693 -0.000286257 0)
(-0.000136795 -0.000251093 0)
(-9.86331e-05 -0.000215238 0)
(-6.71045e-05 -0.000180275 0)
(-4.1814e-05 -0.000147321 0)
(-1.10338e-05 0.000180814 0)
(-4.82496e-05 0.000323646 0)
(-0.000105357 0.000374448 0)
(-0.000168394 0.000388541 0)
(-0.000232285 0.000388381 0)
(-0.000295444 0.000382519 0)
(-0.000356812 0.000373953 0)
(-0.000415663 0.000363572 0)
(-0.000471499 0.000351513 0)
(-0.00052393 0.000337648 0)
(-0.000572627 0.000321771 0)
(-0.000617291 0.000303661 0)
(-0.000657648 0.000283108 0)
(-0.000693436 0.000259925 0)
(-0.000724409 0.000233952 0)
(-0.000750325 0.00020507 0)
(-0.000770951 0.000173197 0)
(-0.000786057 0.000138305 0)
(-0.000795422 0.000100421 0)
(-0.000798861 5.96346e-05 0)
(-0.000796154 1.60718e-05 0)
(-0.000786637 -3.02079e-05 0)
(-0.000770314 -7.96244e-05 0)
(-0.000746825 -0.000131577 0)
(-0.000716047 -0.000185103 0)
(-0.000677986 -0.000238807 0)
(-0.000632805 -0.000290796 0)
(-0.000580914 -0.000338621 0)
(-0.000523073 -0.000379524 0)
(-0.000460478 -0.000410679 0)
(-0.000394759 -0.000429607 0)
(-0.000327997 -0.000434831 0)
(-0.000262457 -0.000425967 0)
(-0.000200476 -0.000404377 0)
(-0.000144007 -0.000372481 0)
(-9.4512e-05 -0.000333464 0)
(-5.30003e-05 -0.00029106 0)
(-1.95573e-05 -0.000247912 0)
(6.13254e-06 -0.000205928 0)
(2.4553e-05 -0.00016674 0)
(-1.01109e-05 0.000206819 0)
(-4.46445e-05 0.000372233 0)
(-9.79708e-05 0.000432447 0)
(-0.000156993 0.000449869 0)
(-0.000216864 0.000450037 0)
(-0.000275983 0.000442909 0)
(-0.000333264 0.000432144 0)
(-0.000387961 0.00041895 0)
(-0.000439561 0.000403624 0)
(-0.000487669 0.000386129 0)
(-0.000531956 0.000366309 0)
(-0.000572139 0.000343978 0)
(-0.000607964 0.000318951 0)
(-0.000639204 0.000291058 0)
(-0.000665644 0.000260151 0)
(-0.000687082 0.00022612 0)
(-0.00070332 0.000188889 0)
(-0.000714157 0.000148432 0)
(-0.000719411 0.000104777 0)
(-0.00071894 5.79806e-05 0)
(-0.000712465 8.09709e-06 0)
(-0.000699236 -4.48946e-05 0)
(-0.000679336 -0.000101313 0)
(-0.000652312 -0.000160451 0)
(-0.000618013 -0.000221245 0)
(-0.000576389 -0.000282163 0)
(-0.00052758 -0.000341089 0)
(-0.000471997 -0.000395263 0)
(-0.000410452 -0.000441508 0)
(-0.000344286 -0.000476513 0)
(-0.000275271 -0.000497373 0)
(-0.000205845 -0.000502256 0)
(-0.000138415 -0.000490579 0)
(-7.58082e-05 -0.000463896 0)
(-2.01091e-05 -0.000425006 0)
(2.73423e-05 -0.000377391 0)
(6.48018e-05 -0.000326149 0)
(9.25268e-05 -0.000274379 0)
(0.000110958 -0.00022452 0)
(0.00012098 -0.000178213 0)
(-8.84447e-06 0.000230306 0)
(-3.95763e-05 0.000416494 0)
(-8.74683e-05 0.000485581 0)
(-0.000140717 0.000506202 0)
(-0.000194832 0.000506678 0)
(-0.000248229 0.000498279 0)
(-0.000299815 0.000485301 0)
(-0.00034884 0.000469269 0)
(-0.000394787 0.000450649 0)
(-0.000437263 0.000429498 0)
(-0.000475948 0.000405721 0)
(-0.000510574 0.000379174 0)
(-0.000540908 0.000349702 0)
(-0.000566746 0.000317159 0)
(-0.000587902 0.000281409 0)
(-0.0006042 0.00024235 0)
(-0.00061546 0.000199908 0)
(-0.000621493 0.000154054 0)
(-0.000622133 0.000104805 0)
(-0.000617238 5.22009e-05 0)
(-0.000606263 -3.74387e-06 0)
(-0.000589069 -6.34433e-05 0)
(-0.000565073 -0.000126824 0)
(-0.000533943 -0.00019314 0)
(-0.0004955 -0.00026124 0)
(-0.000449623 -0.000329458 0)
(-0.000396466 -0.00039538 0)
(-0.000336471 -0.000455917 0)
(-0.000270541 -0.000507446 0)
(-0.000200257 -0.000546089 0)
(-0.000127419 -0.000568451 0)
(-5.51273e-05 -0.000572242 0)
(1.46491e-05 -0.000556464 0)
(7.79694e-05 -0.000522968 0)
(0.000132636 -0.000475522 0)
(0.000177237 -0.000418517 0)
(0.000210626 -0.000356795 0)
(0.000232483 -0.000294601 0)
(0.000243235 -0.000235059 0)
(0.000243947 -0.000180227 0)
(-7.33588e-06 0.000250571 0)
(-3.34414e-05 0.000455175 0)
(-7.46511e-05 0.000532409 0)
(-0.000120788 0.000556067 0)
(-0.000167828 0.000556864 0)
(-0.000214229 0.000547253 0)
(-0.000258915 0.000532128 0)
(-0.000301142 0.000513327 0)
(-0.000340398 0.000491482 0)
(-0.000376298 0.000466754 0)
(-0.000408533 0.00043911 0)
(-0.000436847 0.000408454 0)
(-0.000461027 0.000374667 0)
(-0.000480885 0.000337624 0)
(-0.000496254 0.000297204 0)
(-0.000506971 0.000253307 0)
(-0.000512864 0.000205853 0)
(-0.000513738 0.000154793 0)
(-0.000509427 0.000100114 0)
(-0.000499745 4.18217e-05 0)
(-0.000483847 -2.00738e-05 0)
(-0.000462017 -8.63604e-05 0)
(-0.00043329 -0.000156715 0)
(-0.000397361 -0.000230257 0)
(-0.000354043 -0.000305724 0)
(-0.000303102 -0.000381348 0)
(-0.000244817 -0.000454319 0)
(-0.000179684 -0.000521221 0)
(-0.000108782 -0.00057793 0)
(-3.40399e-05 -0.000619928 0)
(4.32967e-05 -0.000643104 0)
(0.000118307 -0.000644353 0)
(0.000189287 -0.000623552 0)
(0.000253249 -0.000582466 0)
(0.000307554 -0.000525039 0)
(0.000350102 -0.000456488 0)
(0.000379544 -0.000382392 0)
(0.000395427 -0.000307854 0)
(0.00039819 -0.000236777 0)
(0.000389023 -0.000171783 0)
(-5.68635e-06 0.000267136 0)
(-2.66421e-05 0.000487384 0)
(-6.03356e-05 0.000571873 0)
(-9.84443e-05 0.000598366 0)
(-0.000137494 0.000599518 0)
(-0.000176022 0.000588804 0)
(-0.000212983 0.000571665 0)
(-0.000247654 0.000550235 0)
(-0.000279534 0.000525317 0)
(-0.000308245 0.000497172 0)
(-0.000333491 0.000465835 0)
(-0.000355027 0.000431258 0)
(-0.000372649 0.000393355 0)
(-0.000386179 0.000352027 0)
(-0.000395455 0.00030716 0)
(-0.000400315 0.000258654 0)
(-0.000400575 0.00020641 0)
(-0.000396026 0.000150343 0)
(-0.000386466 9.0371e-05 0)
(-0.00037158 2.64209e-05 0)
(-0.000350253 -4.14644e-05 0)
(-0.000323102 -0.000114291 0)
(-0.000288863 -0.00019167 0)
(-0.000247264 -0.000272524 0)
(-0.000198192 -0.000355442 0)
(-0.000141246 -0.000438631 0)
(-7.7121e-05 -0.000518711 0)
(-6.13004e-06 -0.000592148 0)
(7.01926e-05 -0.000653721 0)
(0.000149095 -0.000697892 0)
(0.000229037 -0.000720658 0)
(0.000307121 -0.000719008 0)
(0.0003805 -0.000692336 0)
(0.000445886 -0.000642399 0)
(0.000500198 -0.000573458 0)
(0.000540929 -0.000491489 0)
(0.000566479 -0.00040299 0)
(0.000576298 -0.000314024 0)
(0.000570849 -0.000229371 0)
(0.00055142 -0.000152362 0)
(-3.99385e-06 0.000279741 0)
(-1.95672e-05 0.000512591 0)
(-4.53073e-05 0.000603304 0)
(-7.48708e-05 0.00063238 0)
(-0.000105399 0.000633929 0)
(-0.00013554 0.000622259 0)
(-0.000164305 0.00060329 0)
(-0.000190997 0.000579434 0)
(-0.000215129 0.000551656 0)
(-0.000236333 0.000520317 0)
(-0.00025432 0.00048552 0)
(-0.000268853 0.000447263 0)
(-0.000279729 0.00040549 0)
(-0.000286762 0.00036012 0)
(-0.000289782 0.000311047 0)
(-0.000288606 0.000258159 0)
(-0.000283018 0.000201323 0)
(-0.000272768 0.000140392 0)
(-0.000257562 7.5189e-05 0)
(-0.000236594 5.60749e-06 0)
(-0.000209466 -6.84595e-05 0)
(-0.000176148 -0.000147898 0)
(-0.000135408 -0.000232472 0)
(-8.71557e-05 -0.000320816 0)
(-3.13422e-05 -0.000411478 0)
(3.27337e-05 -0.000503022 0)
(0.000102873 -0.000589773 0)
(0.000178904 -0.000668279 0)
(0.000259467 -0.00073335 0)
(0.000342819 -0.000779498 0)
(0.000426851 -0.000801813 0)
(0.000508665 -0.000796738 0)
(0.000584914 -0.000763251 0)
(0.000651956 -0.000703132 0)
(0.000706326 -0.000621004 0)
(0.000745185 -0.000523625 0)
(0.000766702 -0.000418554 0)
(0.000770243 -0.000312952 0)
(0.000756289 -0.000212589 0)
(0.000726154 -0.000121658 0)
(-2.34633e-06 0.000288346 0)
(-1.25684e-05 0.000530618 0)
(-3.02814e-05 0.00062641 0)
(-5.11494e-05 0.000657765 0)
(-7.29742e-05 0.000659746 0)
(-9.45496e-05 0.000647289 0)
(-0.00011496 0.000626711 0)
(-0.000133547 0.000600672 0)
(-0.000149836 0.000570288 0)
(-0.000163467 0.000536016 0)
(-0.000174152 0.000498027 0)
(-0.000181653 0.000456357 0)
(-0.000185757 0.000410975 0)
(-0.00018625 0.000361807 0)
(-0.000182925 0.000308753 0)
(-0.000175562 0.000251671 0)
(-0.000163882 0.000190374 0)
(-0.000147577 0.000124608 0)
(-0.000126161 5.40381e-05 0)
(-9.80327e-05 -2.12552e-05 0)
(-6.43484e-05 -0.000101782 0)
(-2.36872e-05 -0.000188296 0)
(2.49061e-05 -0.000281135 0)
(8.05423e-05 -0.000377209 0)
(0.000143526 -0.000475313 0)
(0.000213474 -0.000572779 0)
(0.000289616 -0.000665618 0)
(0.000371355 -0.000749267 0)
(0.000457369 -0.000818035 0)
(0.000545895 -0.000865858 0)
(0.000634575 -0.000887175 0)
(0.00072032 -0.000877874 0)
(0.000799458 -0.000836465 0)
(0.000868014 -0.000764681 0)
(0.000922179 -0.000667549 0)
(0.000958817 -0.000552671 0)
(0.000975894 -0.000428784 0)
(0.000972703 -0.000304281 0)
(0.000949692 -0.000186054 0)
(0.000908169 -7.92699e-05 0)
(-8.18244e-07 0.000293093 0)
(-5.94753e-06 0.000541606 0)
(-1.58766e-05 0.000641251 0)
(-2.82234e-05 0.000674519 0)
(-4.14758e-05 0.000676946 0)
(-5.46039e-05 0.000663875 0)
(-6.67837e-05 0.000641928 0)
(-7.73984e-05 0.000613971 0)
(-8.59871e-05 0.000581254 0)
(-9.21877e-05 0.000544327 0)
(-9.57038e-05 0.000503416 0)
(-9.62818e-05 0.000458597 0)
(-9.36839e-05 0.000409855 0)
(-8.7635e-05 0.000357099 0)
(-7.78744e-05 0.000300233 0)
(-6.40996e-05 0.000239056 0)
(-4.59271e-05 0.000173276 0)
(-2.29543e-05 0.00010242 0)
(5.69493e-06 2.56242e-05 0)
(4.1601e-05 -5.62144e-05 0)
(8.32487e-05 -0.00014367 0)
(0.00013218 -0.000237439 0)
(0.000188419 -0.000336831 0)
(0.000251799 -0.000440109 0)
(0.000322337 -0.000545276 0)
(0.00039953 -0.000649284 0)
(0.000482687 -0.000748008 0)
(0.000570969 -0.000836402 0)
(0.000663033 -0.00090837 0)
(0.00075701 -0.000957282 0)
(0.000850371 -0.000976865 0)
(0.00093984 -0.000962346 0)
(0.00102149 -0.000911734 0)
(0.00109105 -0.000826677 0)
(0.00114441 -0.000712623 0)
(0.00117816 -0.00057809 0)
(0.00119009 -0.000433098 0)
(0.00117941 -0.000287398 0)
(0.00114644 -0.000149137 0)
(0.00109288 -2.44622e-05 0)
(5.39961e-07 0.000294271 0)
(6.69608e-08 0.000545943 0)
(-2.58968e-06 0.000648188 0)
(-6.8727e-06 0.000682957 0)
(-1.19605e-05 0.000685812 0)
(-1.70236e-05 0.000672289 0)
(-2.134e-05 0.00064921 0)
(-2.43373e-05 0.000619599 0)
(-2.55616e-05 0.000584822 0)
(-2.46379e-05 0.000545502 0)
(-2.12416e-05 0.000501912 0)
(-1.50744e-05 0.000454148 0)
(-5.84056e-06 0.000402168 0)
(6.82087e-06 0.00034574 0)
(2.32073e-05 0.000284948 0)
(4.37796e-05 0.000219422 0)
(6.90463e-05 0.000148709 0)
(9.95564e-05 7.22008e-05 0)
(0.000137017 -1.04887e-05 0)
(0.000180405 -9.88219e-05 0)
(0.000230792 -0.000193319 0)
(0.000288743 -0.000294358 0)
(0.000354063 -0.000401007 0)
(0.000426512 -0.000511462 0)
(0.000505793 -0.000623384 0)
(0.000591301 -0.00073351 0)
(0.000682227 -0.000837549 0)
(0.00077754 -0.000930073 0)
(0.000875813 -0.00100453 0)
(0.000975092 -0.00105371 0)
(0.00107273 -0.00107059 0)
(0.00116531 -0.00104967 0)
(0.0012487 -0.000988429 0)
(0.00131838 -0.000888385 0)
(0.00136997 -0.000755419 0)
(0.00139982 -0.00059903 0)
(0.00140558 -0.00043062 0)
(0.00138635 -0.00026144 0)
(0.00134231 -0.00010095 0)
(0.00127736 4.49239e-05 0)
(1.72865e-06 0.000292353 0)
(5.37891e-06 0.000544257 0)
(9.25499e-06 0.000647765 0)
(1.2313e-05 0.000683573 0)
(1.47288e-05 0.00068681 0)
(1.71193e-05 0.00067297 0)
(2.00949e-05 0.000648964 0)
(2.41839e-05 0.000617919 0)
(2.98415e-05 0.000581282 0)
(3.74707e-05 0.000539731 0)
(4.74445e-05 0.000493567 0)
(6.01286e-05 0.00044289 0)
(7.58943e-05 0.000387661 0)
(9.51366e-05 0.000327733 0)
(0.000118317 0.000262918 0)
(0.000146035 0.000192801 0)
(0.000178917 0.000116764 0)
(0.000217827 3.40445e-05 0)
(0.000264647 -5.5271e-05 0)
(0.000317664 -0.000150666 0)
(0.000378425 -0.000252638 0)
(0.000446984 -0.000361152 0)
(0.000522957 -0.000475038 0)
(0.000605842 -0.000592365 0)
(0.000694998 -0.00071055 0)
(0.000789608 -0.000826142 0)
(0.000888696 -0.000934663 0)
(0.000991088 -0.00103039 0)
(0.00109528 -0.00110633 0)
(0.00119927 -0.00115467 0)
(0.00130035 -0.00116763 0)
(0.00139499 -0.00113896 0)
(0.00147892 -0.00106552 0)
(0.00154743 -0.000948689 0)
(0.00159589 -0.000794774 0)
(0.00162048 -0.000614308 0)
(0.00161871 -0.000420165 0)
(0.00158945 -0.000225217 0)
(0.00153291 -4.04949e-05 0)
(0.00145359 0.00012762 0)
(2.75869e-06 0.000287637 0)
(9.96526e-06 0.000537292 0)
(1.94843e-05 0.000640879 0)
(2.89414e-05 0.000677209 0)
(3.79684e-05 0.000680695 0)
(4.69812e-05 0.000666604 0)
(5.64767e-05 0.000641826 0)
(6.69406e-05 0.000609528 0)
(7.88376e-05 0.0005712 0)
(9.26139e-05 0.000527548 0)
(0.000108711 0.000478883 0)
(0.000127586 0.000425292 0)
(0.000149723 0.000366708 0)
(0.000175661 0.00030294 0)
(0.000206053 0.000233662 0)
(0.000241672 0.000158312 0)
(0.000283399 7.60865e-05 0)
(0.000333201 -1.37074e-05 0)
(0.000390126 -0.000110284 0)
(0.000454871 -0.000213411 0)
(0.000527947 -0.000323285 0)
(0.000608951 -0.000439405 0)
(0.000697151 -0.000560327 0)
(0.000791657 -0.000683957 0)
(0.000891475 -0.000807562 0)
(0.000995537 -0.000927574 0)
(0.00110271 -0.00103937 0)
(0.00121172 -0.001137 0)
(0.00132105 -0.00121309 0)
(0.00142868 -0.00125921 0)
(0.00153189 -0.00126683 0)
(0.00162711 -0.00122887 0)
(0.00170997 -0.00114156 0)
(0.00177559 -0.00100607 0)
(0.00181919 -0.000829145 0)
(0.00183681 -0.000622414 0)
(0.00182585 -0.000400322 0)
(0.00178502 -0.000177328 0)
(0.0017167 3.54795e-05 0)
(0.00162023 0.000226537 0)
(3.61512e-06 0.000280561 0)
(1.37665e-05 0.000525856 0)
(2.79468e-05 0.000628506 0)
(4.27131e-05 0.000664893 0)
(5.72718e-05 0.000668472 0)
(7.18766e-05 0.000654144 0)
(8.69304e-05 0.000628681 0)
(0.000102891 0.000595229 0)
(0.000120251 0.000555274 0)
(0.00013953 0.000509518 0)
(0.000161275 0.000458251 0)
(0.000186083 0.000401524 0)
(0.000214616 0.000339211 0)
(0.000247638 0.000271026 0)
(0.000286045 0.000196479 0)
(0.000330867 0.000114799 0)
(0.000383555 2.50495e-05 0)
(0.000445732 -7.28401e-05 0)
(0.000515792 -0.000177613 0)
(0.000594752 -0.000289197 0)
(0.000682318 -0.00040726 0)
(0.000777567 -0.000530809 0)
(0.000879296 -0.000658147 0)
(0.000986184 -0.000787059 0)
(0.0010969 -0.000914764 0)
(0.00121017 -0.00103768 0)
(0.00132475 -0.00115115 0)
(0.00143936 -0.00124903 0)
(0.00155249 -0.00132363 0)
(0.0016622 -0.00136592 0)
(0.00176579 -0.00136658 0)
(0.00185968 -0.00131765 0)
(0.00193942 -0.00121468 0)
(0.00200004 -0.0010586 0)
(0.00203664 -0.000856598 0)
(0.00204515 -0.000621434 0)
(0.00202283 -0.000369216 0)
(0.00196826 -0.000116215 0)
(0.00188454 0.000125796 0)
(0.00177117 0.000341854 0)
(4.28303e-06 0.000271585 0)
(1.67208e-05 0.000510835 0)
(3.45029e-05 0.00061173 0)
(5.3378e-05 0.00064777 0)
(7.22492e-05 0.000651272 0)
(9.12642e-05 0.000636667 0)
(0.000110771 0.00061053 0)
(0.000131233 0.000575916 0)
(0.000153212 0.00053426 0)
(0.000177345 0.000486215 0)
(0.000204352 0.00043201 0)
(0.000235046 0.000371617 0)
(0.000270361 0.000304807 0)
(0.000311382 0.000231147 0)
(0.000359355 0.000149924 0)
(0.000415787 6.01385e-05 0)
(0.000483094 -3.90684e-05 0)
(0.000559523 -0.000145947 0)
(0.000645713 -0.000259927 0)
(0.00074138 -0.000380438 0)
(0.000845423 -0.000506523 0)
(0.000956289 -0.000636757 0)
(0.00107225 -0.00076928 0)
(0.00119158 -0.000901869 0)
(0.0013127 -0.00103183 0)
(0.00143422 -0.00115568 0)
(0.00155487 -0.00126882 0)
(0.00167344 -0.00136502 0)
(0.00178853 -0.00143625 0)
(0.00189827 -0.00147291 0)
(0.00200005 -0.00146482 0)
(0.00209029 -0.00140312 0)
(0.00216452 -0.00128261 0)
(0.00221767 -0.00110398 0)
(0.00224481 -0.000874856 0)
(0.00224183 -0.000609171 0)
(0.0022059 -0.00032469 0)
(0.0021358 -3.93854e-05 0)
(0.00203408 0.000232973 0)
(0.00190237 0.000474739 0)
(4.75314e-06 0.000261192 0)
(1.87818e-05 0.00049317 0)
(3.90414e-05 0.000591718 0)
(6.07395e-05 0.000627096 0)
(8.26034e-05 0.000630355 0)
(0.000104743 0.000615375 0)
(0.000127511 0.000588465 0)
(0.000151435 0.000552532 0)
(0.000177207 0.000508897 0)
(0.000205665 0.000458103 0)
(0.000237791 0.000400264 0)
(0.000274734 0.000335215 0)
(0.00031782 0.00026256 0)
(0.000368578 0.000181647 0)
(0.00042879 9.14957e-05 0)
(0.000500935 -9.03905e-06 0)
(0.000584786 -0.000118765 0)
(0.000679538 -0.000236066 0)
(0.000784899 -0.000359991 0)
(0.000899508 -0.00048931 0)
(0.00102143 -0.000622524 0)
(0.00114849 -0.000757946 0)
(0.0012785 -0.000893714 0)
(0.00140945 -0.00102777 0)
(0.00153965 -0.00115763 0)
(0.00166769 -0.00128007 0)
(0.00179242 -0.0013906 0)
(0.00191274 -0.00148295 0)
(0.00202743 -0.00154877 0)
(0.00213474 -0.00157785 0)
(0.00223216 -0.00155913 0)
(0.00231611 -0.00148275 0)
(0.00238208 -0.00134274 0)
(0.00242496 -0.00113955 0)
(0.00243981 -0.000881312 0)
(0.0024226 -0.000583199 0)
(0.00237049 -0.000264564 0)
(0.0022841 5.6798e-05 0)
(0.00216143 0.000359738 0)
(0.00200944 0.000626972 0)
(5.02073e-06 0.000249886 0)
(1.99198e-05 0.00047385 0)
(4.14866e-05 0.000569704 0)
(6.46643e-05 0.000604209 0)
(8.8141e-05 0.000607062 0)
(0.000112073 0.000591536 0)
(0.000136899 0.000563618 0)
(0.000163297 0.000525992 0)
(0.000192189 0.000479795 0)
(0.00022473 0.000425387 0)
(0.000262307 0.000362686 0)
(0.000306554 0.000291319 0)
(0.00035935 0.00021065 0)
(0.000422852 0.000119753 0)
(0.000499727 1.7407e-05 0)
(0.000591317 -9.61209e-05 0)
(0.000695667 -0.00021791 0)
(0.000812156 -0.000346516 0)
(0.000939057 -0.000480253 0)
(0.00107394 -0.000617283 0)
(0.00121409 -0.000755792 0)
(0.00135681 -0.000894068 0)
(0.00149961 -0.00103046 0)
(0.00164041 -0.00116322 0)
(0.00177753 -0.00129025 0)
(0.00190968 -0.00140864 0)
(0.00203588 -0.00151408 0)
(0.00215527 -0.00160028 0)
(0.0022668 -0.00165858 0)
(0.00236888 -0.00167806 0)
(0.00245907 -0.00164673 0)
(0.00253379 -0.00155368 0)
(0.00258848 -0.00139214 0)
(0.00261799 -0.00116234 0)
(0.00261741 -0.000872964 0)
(0.00258272 -0.00054053 0)
(0.00251118 -0.000186106 0)
(0.00240359 0.000171701 0)
(0.00225916 0.000506792 0)
(0.00208576 0.000799481 0)
(5.08428e-06 0.000238179 0)
(2.01217e-05 0.000453895 0)
(4.18033e-05 0.000546959 0)
(6.50959e-05 0.000580485 0)
(8.87995e-05 0.000582763 0)
(0.000113221 0.000566416 0)
(0.000138993 0.000537047 0)
(0.000167071 0.000497042 0)
(0.000198752 0.000447256 0)
(0.000235677 0.000387772 0)
(0.000279829 0.000318216 0)
(0.000333536 0.000237919 0)
(0.000399447 0.000145963 0)
(0.000480616 4.11283e-05 0)
(0.000579776 -7.73182e-05 0)
(0.000694292 -0.000205062 0)
(0.000823035 -0.000340017 0)
(0.00096374 -0.000479807 0)
(0.00111335 -0.000622053 0)
(0.00126849 -0.000764591 0)
(0.00142588 -0.000905613 0)
(0.00158251 -0.00104366 0)
(0.00173584 -0.00117749 0)
(0.00188383 -0.00130583 0)
(0.00202499 -0.00142704 0)
(0.00215825 -0.00153858 0)
(0.00228289 -0.00163638 0)
(0.00239827 -0.0017141 0)
(0.00250358 -0.00176272 0)
(0.00259737 -0.00177057 0)
(0.00267724 -0.0017246 0)
(0.00273959 -0.00161281 0)
(0.00277976 -0.00142762 0)
(0.00279259 -0.00116909 0)
(0.00277323 -0.000846585 0)
(0.00271786 -0.000477975 0)
(0.00262374 -8.58758e-05 0)
(0.00249107 0.000309333 0)
(0.0023221 0.000676428 0)
(0.00212546 0.000993436 0)
(4.94494e-06 0.000226589 0)
(1.93923e-05 0.000434332 0)
(4.00077e-05 0.000524761 0)
(6.20812e-05 0.000557288 0)
(8.46951e-05 0.000558777 0)
(0.000108437 0.000541165 0)
(0.000134286 0.000509597 0)
(0.000163645 0.000466061 0)
(0.000198393 0.000411011 0)
(0.000240893 0.000344124 0)
(0.000293988 0.00026463 0)
(0.000360976 0.0001715 0)
(0.000445527 6.34848e-05 0)
(0.000551522 -6.09809e-05 0)
(0.000676257 -0.000196366 0)
(0.000817943 -0.000339721 0)
(0.000973615 -0.000487684 0)
(0.00113944 -0.000637085 0)
(0.00131128 -0.000785221 0)
(0.00148515 -0.000930006 0)
(0.00165746 -0.00106998 0)
(0.00182517 -0.00120417 0)
(0.00198587 -0.0013319 0)
(0.00213775 -0.00145249 0)
(0.00227957 -0.00156479 0)
(0.00241056 -0.00166667 0)
(0.00253027 -0.00175427 0)
(0.00263836 -0.00182122 0)
(0.0027342 -0.00185802 0)
(0.00281647 -0.0018522 0)
(0.00288277 -0.00178954 0)
(0.00292943 -0.00165686 0)
(0.00295166 -0.00144578 0)
(0.00294425 -0.00115632 0)
(0.00290247 -0.000798679 0)
(0.00282275 -0.000392001 0)
(0.0027033 4.22434e-05 0)
(0.00254147 0.000474029 0)
(0.00234475 0.000871566 0)
(0.00212264 0.00121045 0)
(4.60727e-06 0.00021562 0)
(1.7761e-05 0.000416166 0)
(3.61879e-05 0.000504342 0)
(5.58128e-05 0.000535894 0)
(7.61958e-05 0.000536268 0)
(9.83738e-05 0.000516671 0)
(0.000123872 0.000481694 0)
(0.000154782 0.000432789 0)
(0.000193845 0.000369857 0)
(0.000244462 0.000292014 0)
(0.000310687 0.000197986 0)
(0.000397082 8.63031e-05 0)
(0.000508432 -4.49508e-05 0)
(0.000642904 -0.000189884 0)
(0.000797683 -0.000344001 0)
(0.000969015 -0.000502709 0)
(0.00115215 -0.000661755 0)
(0.00134207 -0.000817672 0)
(0.00153398 -0.000967931 0)
(0.00172364 -0.00111091 0)
(0.00190749 -0.00124576 0)
(0.00208267 -0.00137218 0)
(0.00224703 -0.00149015 0)
(0.00239907 -0.0015996 0)
(0.00253788 -0.00169993 0)
(0.00266301 -0.0017894 0)
(0.00277433 -0.00186436 0)