/*--------------------------------*- C++ -*----------------------------------*\
  =========                 |
  \\      /  F ield         | OpenFOAM: The Open Source CFD Toolbox
   \\    /   O peration     | Website:  https://openfoam.org
    \\  /    A nd           | Version:  6
     \\/     M anipulation  |
\*---------------------------------------------------------------------------*/
FoamFile
{
    version     2.0;
    format      ascii;
    class       volScalarField;
    location    "20";
    object      chargeDensity;
}
// * * * * * * * * * * * * * * * * * * * * * * * * * * * * * * * * * * * * * //

dimensions      [0 -3 1 0 0 1 0];

internalField   nonuniform List<scalar> 
8800
(
0.000910777
0.000914851
0.000916686
0.000917753
0.000918449
0.000919092
0.000919769
0.000920503
0.000921298
0.00092215
0.00092305
0.000923991
0.000924966
0.000925966
0.000926985
0.000928017
0.000929055
0.000930095
0.000931132
0.000932164
0.000933186
0.000934196
0.000935191
0.000936169
0.000937125
0.000938056
0.000938959
0.000939829
0.000940662
0.000941456
0.000942208
0.00094292
0.00094357
0.000944185
0.000944777
0.000945349
0.0009459
0.000946429
0.000946933
0.000947408
0.000798074
0.000801394
0.000803482
0.000804731
0.000805587
0.000806324
0.000807061
0.000807841
0.000808675
0.000809563
0.000810498
0.000811472
0.000812477
0.000813505
0.000814547
0.000815597
0.000816649
0.000817696
0.000818734
0.000819759
0.000820767
0.000821755
0.000822721
0.000823662
0.000824575
0.000825456
0.000826303
0.00082711
0.000827874
0.00082859
0.000829244
0.000829784
0.000830249
0.000830687
0.000831101
0.000831496
0.000831874
0.000832233
0.000832574
0.000832894
0.000693459
0.000698129
0.000700467
0.000701794
0.000702675
0.00070343
0.000704183
0.000704978
0.000705825
0.000706723
0.000707665
0.000708642
0.000709645
0.000710664
0.00071169
0.000712715
0.00071373
0.000714731
0.00071571
0.000716663
0.000717587
0.000718479
0.000719335
0.000720155
0.000720935
0.000721674
0.000722368
0.000723012
0.000723598
0.000724103
0.000724448
0.000724657
0.00072485
0.000725013
0.000725155
0.000725285
0.000725406
0.000725521
0.000725629
0.00072573
0.000598197
0.000604958
0.000607891
0.000609312
0.000610175
0.000610896
0.000611619
0.000612387
0.00061321
0.000614081
0.000614991
0.00061593
0.000616885
0.000617845
0.0006188
0.00061974
0.000620655
0.000621539
0.000622384
0.000623186
0.000623941
0.000624646
0.000625301
0.000625904
0.000626454
0.00062695
0.000627388
0.000627758
0.000628033
0.000628146
0.000627983
0.000627857
0.0006277
0.000627522
0.000627335
0.000627147
0.000626966
0.000626795
0.000626635
0.000626485
0.000512806
0.000521805
0.000525511
0.000527125
0.000527995
0.000528669
0.000529333
0.00053004
0.000530798
0.000531599
0.000532432
0.000533283
0.000534136
0.00053498
0.000535802
0.00053659
0.000537334
0.000538025
0.000538659
0.000539229
0.000539732
0.000540167
0.000540535
0.000540835
0.000541069
0.000541233
0.000541319
0.0005413
0.00054111
0.000540587
0.000540082
0.000539567
0.000539033
0.000538493
0.000537961
0.000537447
0.00053696
0.000536503
0.000536079
0.000535685
0.000437058
0.000448358
0.000452914
0.000454781
0.000455682
0.000456308
0.000456893
0.000457509
0.000458166
0.000458856
0.000459565
0.000460277
0.000460976
0.000461646
0.000462273
0.000462847
0.000463355
0.000463789
0.000464145
0.000464417
0.000464604
0.000464705
0.000464723
0.00046466
0.000464515
0.000464283
0.000463943
0.000463442
0.000462655
0.000461671
0.00046078
0.000459887
0.000458993
0.000458114
0.000457265
0.000456457
0.000455699
0.000454994
0.000454343
0.000453744
0.000370441
0.000383999
0.000389423
0.00039157
0.000392519
0.000393094
0.000393587
0.000394087
0.000394613
0.000395155
0.000395701
0.000396231
0.000396729
0.000397178
0.000397564
0.000397875
0.0003981
0.000398232
0.000398266
0.0003982
0.000398033
0.000397767
0.000397405
0.000396948
0.000396397
0.000395738
0.000394938
0.000393917
0.000392527
0.00039125
0.000390016
0.000388795
0.000387597
0.000386439
0.000385334
0.000384295
0.000383331
0.000382443
0.000381631
0.000380891
0.000312287
0.000327919
0.000334182
0.000336618
0.000337623
0.000338149
0.000338541
0.000338909
0.00033928
0.00033965
0.000340003
0.000340321
0.000340587
0.000340785
0.000340901
0.000340923
0.000340842
0.000340652
0.00034035
0.000339935
0.000339408
0.000338773
0.000338033
0.000337191
0.000336241
0.000335163
0.000333906
0.000332357
0.000330643
0.000329096
0.000327593
0.000326124
0.000324703
0.000323346
0.000322068
0.00032088
0.00031979
0.000318799
0.000317904
0.000317098
0.000261822
0.000279229
0.000286266
0.000288989
0.000290057
0.000290536
0.000290823
0.000291052
0.000291258
0.00029144
0.000291586
0.000291678
0.0002917
0.000291636
0.000291475
0.000291204
0.000290819
0.000290313
0.000289686
0.000288939
0.000288076
0.000287101
0.000286018
0.000284827
0.000283519
0.000282068
0.000280411
0.000278422
0.000276581
0.000274845
0.000273164
0.00027154
0.000269987
0.000268524
0.000267161
0.00026591
0.000264777
0.000263764
0.000262865
0.00026207
0.000218237
0.000237042
0.000244759
0.000247759
0.000248895
0.000249334
0.00024952
0.00024961
0.00024965
0.000249644
0.000249582
0.00024945
0.000249232
0.000248915
0.000248488
0.000247943
0.000247275
0.000246482
0.000245565
0.000244528
0.000243375
0.000242112
0.000240742
0.000239265
0.000237668
0.000235922
0.000233974
0.00023177
0.000229838
0.000228006
0.000226243
0.000224557
0.000222965
0.000221481
0.000220116
0.00021888
0.00021778
0.000216815
0.000215981
0.000215261
0.000180731
0.00020052
0.000208805
0.000212063
0.000213275
0.000213685
0.00021378
0.00021374
0.000213623
0.000213439
0.000213182
0.00021284
0.000212401
0.000211853
0.000211189
0.000210403
0.000209491
0.000208456
0.000207299
0.000206027
0.000204646
0.000203161
0.000201577
0.000199891
0.000198086
0.000196124
0.000193908
0.000191765
0.000189822
0.000187983
0.000186228
0.000184567
0.000183014
0.000181585
0.000180286
0.000179127
0.000178115
0.000177251
0.000176529
0.000175933
0.000148552
0.0001689
0.00017763
0.000181125
0.00018242
0.000182815
0.000182834
0.00018268
0.000182422
0.000182079
0.000181649
0.000181123
0.000180492
0.000179748
0.000178885
0.000177901
0.000176795
0.000175571
0.000174234
0.000172791
0.00017125
0.000169617
0.000167896
0.000166083
0.000164161
0.000162091
0.000159798
0.000157752
0.000155876
0.000154111
0.000152441
0.000150876
0.000149428
0.000148109
0.000146925
0.000145882
0.000144991
0.000144256
0.000143673
0.000143223
0.000121008
0.000141509
0.000150554
0.00015426
0.000155645
0.000156041
0.000156005
0.000155758
0.000155382
0.000154905
0.000154329
0.000153651
0.000152864
0.000151963
0.000150947
0.000149814
0.000148567
0.000147212
0.000145755
0.000144206
0.000142574
0.000140865
0.000139084
0.000137226
0.000135273
0.000133193
0.000130966
0.00012906
0.000127316
0.000125692
0.000124169
0.000122754
0.000121456
0.000120283
0.000119238
0.000118328
0.000117568
0.000116965
0.000116521
0.00011622
9.74825e-05
0.000117761
0.000126991
0.000130877
0.000132358
0.000132775
0.000132704
0.000132388
0.000131921
0.000131338
0.000130648
0.000129852
0.000128948
0.000127933
0.000126808
0.000125575
0.00012424
0.000122809
0.000121292
0.000119699
0.00011804
0.000116322
0.00011455
0.000112719
0.000110808
0.000108742
0.000106742
0.000105022
0.000103462
0.000102029
0.000100699
9.94701e-05
9.83471e-05
9.73338e-05
9.64308e-05
9.56486e-05
9.50072e-05
9.45177e-05
9.41839e-05
9.40155e-05
7.74273e-05
9.71535e-05
0.000106439
0.000110472
0.000112053
0.000112507
0.000112425
0.000112064
0.000111533
0.000110875
0.000110104
0.000109226
0.000108242
0.000107154
0.000105964
0.000104679
0.000103304
0.000101849
0.000100324
9.87413e-05
9.71105e-05
9.54408e-05
9.37364e-05
9.19935e-05
9.01914e-05
8.82279e-05
8.64965e-05
8.49995e-05
8.36628e-05
8.2454e-05
8.13415e-05
8.03179e-05
7.93785e-05
7.85089e-05
7.7724e-05
7.70515e-05
7.65032e-05
7.60969e-05
7.58429e-05
7.57697e-05
6.03748e-05
7.92501e-05
8.84685e-05
9.26144e-05
9.42958e-05
9.48036e-05
9.47325e-05
9.43537e-05
9.3786e-05
9.30811e-05
9.22606e-05
9.13338e-05
9.03064e-05
8.91829e-05
8.79688e-05
8.66722e-05
8.53009e-05
8.38656e-05
8.23783e-05
8.0851e-05
7.9295e-05
7.77198e-05
7.61302e-05
7.45237e-05
7.28842e-05
7.11184e-05
6.96497e-05
6.84008e-05
6.73097e-05
6.63212e-05
6.54286e-05
6.46156e-05
6.38576e-05
6.31283e-05
6.24453e-05
6.18442e-05
6.13418e-05
6.09683e-05
6.07494e-05
6.07179e-05
4.58845e-05
6.37109e-05
7.27256e-05
7.69358e-05
7.87204e-05
7.92967e-05
7.92573e-05
7.8884e-05
7.83055e-05
7.75819e-05
7.67408e-05
7.57963e-05
7.47576e-05
7.36322e-05
7.24282e-05
7.1156e-05
6.98243e-05
6.84453e-05
6.70317e-05
6.55964e-05
6.41511e-05
6.27059e-05
6.12666e-05
5.98322e-05
5.83264e-05
5.68429e-05
5.56428e-05
5.46545e-05
5.38201e-05
5.30727e-05
5.24078e-05
5.17982e-05
5.12053e-05
5.05988e-05
4.99866e-05
4.94036e-05
4.88846e-05
4.84766e-05
4.82245e-05
4.81714e-05
3.35819e-05
5.02108e-05
5.89199e-05
6.31436e-05
6.50151e-05
6.56697e-05
6.5683e-05
6.53387e-05
6.4774e-05
6.40559e-05
6.32191e-05
6.22838e-05
6.12617e-05
6.0163e-05
5.89979e-05
5.77748e-05
5.6508e-05
5.52106e-05
5.38955e-05
5.25756e-05
5.12633e-05
4.99688e-05
4.86987e-05
4.74532e-05
4.61173e-05
4.49539e-05
4.40246e-05
4.32978e-05
4.27215e-05
4.22302e-05
4.17933e-05
4.13696e-05
4.09118e-05
4.03845e-05
3.97885e-05
3.91603e-05
3.85529e-05
3.80343e-05
3.76723e-05
3.75262e-05
2.31439e-05
3.84767e-05
4.67941e-05
5.09822e-05
5.29235e-05
5.36592e-05
5.37378e-05
5.34405e-05
5.29099e-05
5.22194e-05
5.14095e-05
5.05051e-05
4.95214e-05
4.84708e-05
4.73653e-05
4.62138e-05
4.50327e-05
4.38362e-05
4.26372e-05
4.1449e-05
4.02841e-05
3.91531e-05
3.8063e-05
3.70153e-05
3.59326e-05
3.50612e-05
3.44035e-05
3.3937e-05
3.3613e-05
3.33643e-05
3.31367e-05
3.28713e-05
3.25089e-05
3.20069e-05
3.13621e-05
3.06153e-05
2.98389e-05
2.91257e-05
2.85701e-05
2.82527e-05
1.42916e-05
2.82753e-05
3.61313e-05
4.02372e-05
4.22273e-05
4.30412e-05
4.31927e-05
4.29556e-05
4.24754e-05
4.18302e-05
4.10653e-05
4.02096e-05
3.92813e-05
3.82953e-05
3.72653e-05
3.6202e-05
3.5122e-05
3.40399e-05
3.29695e-05
3.19242e-05
3.09165e-05
2.99572e-05
2.90538e-05
2.81726e-05
2.74007e-05
2.68144e-05
2.64236e-05
2.62104e-05
2.61265e-05
2.60993e-05
2.60533e-05
2.59092e-05
2.5592e-05
2.50509e-05
2.42808e-05
2.33309e-05
2.22949e-05
2.12944e-05
2.04541e-05
1.98803e-05
6.78487e-06
1.94056e-05
2.6747e-05
3.07274e-05
3.27426e-05
3.36272e-05
3.38545e-05
3.36867e-05
3.32689e-05
3.26825e-05
3.19766e-05
3.11832e-05
3.03235e-05
2.94147e-05
2.84718e-05
2.75075e-05
2.65381e-05
2.55787e-05
2.46435e-05
2.3746e-05
2.28989e-05
2.21129e-05
2.13965e-05
2.07198e-05
2.02295e-05
1.99147e-05
1.97813e-05
1.981e-05
1.99489e-05
2.01165e-05
2.02164e-05
2.01462e-05
1.98128e-05
1.91555e-05
1.817e-05
1.69182e-05
1.55193e-05
1.41276e-05
1.29024e-05
1.19791e-05
4.17748e-07
1.16938e-05
1.8483e-05
2.22992e-05
2.43145e-05
2.52584e-05
2.556e-05
2.54662e-05
2.51188e-05
2.46009e-05
2.39642e-05
2.3243e-05
2.24612e-05
2.16379e-05
2.07895e-05
1.99302e-05
1.9076e-05
1.82425e-05
1.74441e-05
1.66942e-05
1.60054e-05
1.53888e-05
1.48406e-05
1.44082e-05
1.41712e-05
1.41102e-05
1.42206e-05
1.4476e-05
1.48164e-05
1.51471e-05
1.53493e-05
1.52949e-05
1.48699e-05
1.40037e-05
1.26953e-05
1.10249e-05
9.14282e-06
7.24131e-06
5.51813e-06
4.14093e-06
-4.98609e-06
4.9893e-06
1.12034e-05
1.48217e-05
1.68117e-05
1.78006e-05
1.81712e-05
1.8152e-05
1.78792e-05
1.74357e-05
1.68745e-05
1.62318e-05
1.55337e-05
1.48005e-05
1.405e-05
1.32976e-05
1.25592e-05
1.18505e-05
1.11859e-05
1.0579e-05
1.00422e-05
9.58683e-06
9.20123e-06
9.01658e-06
9.01552e-06
9.1898e-06
9.52695e-06
9.99058e-06
1.05077e-05
1.09649e-05
1.12173e-05
1.11081e-05
1.05001e-05
9.31224e-06
7.55122e-06
5.32216e-06
2.81386e-06
2.6323e-07
-2.08913e-06
-4.0406e-06
-9.57698e-06
-8.38601e-07
4.79069e-06
8.1832e-06
1.01229e-05
1.11403e-05
1.15713e-05
1.16237e-05
1.1426e-05
1.10591e-05
1.05764e-05
1.00152e-05
9.40281e-06
8.76105e-06
8.10847e-06
7.4613e-06
6.83565e-06
6.24699e-06
5.70979e-06
5.23754e-06
4.84253e-06
4.53131e-06
4.34888e-06
4.37474e-06
4.58789e-06
4.97759e-06
5.52244e-06
6.17296e-06
6.83801e-06
7.37944e-06
7.62063e-06
7.37143e-06
6.46846e-06
4.82143e-06
2.44956e-06
-5.08363e-07
-3.81562e-06
-7.18284e-06
-1.03215e-05
-1.29914e-05
-1.34827e-05
-5.90337e-06
-8.57e-07
2.28766e-06
4.15359e-06
5.18159e-06
5.66156e-06
5.77924e-06
5.65362e-06
5.3622e-06
4.9576e-06
4.47748e-06
3.95003e-06
3.39777e-06
2.83992e-06
2.29336e-06
1.77422e-06
1.29787e-06
8.78631e-07
5.29897e-07
2.63934e-07
8.46737e-08
1.12094e-07
3.32895e-07
7.41756e-07
1.32756e-06
2.05995e-06
2.8736e-06
3.65385e-06
4.23046e-06
4.38759e-06
3.89537e-06
2.56088e-06
2.85876e-07
-2.89101e-06
-6.78655e-06
-1.11046e-05
-1.54939e-05
-1.96122e-05
-2.31794e-05
-1.68114e-05
-1.03036e-05
-5.82817e-06
-2.94743e-06
-1.1768e-06
-1.56709e-07
3.58583e-07
5.32276e-07
4.72556e-07
2.52263e-07
-7.77371e-08
-4.80195e-07
-9.26677e-07
-1.39425e-06
-1.86335e-06
-2.31671e-06
-2.73821e-06
-3.11262e-06
-3.42589e-06
-3.66463e-06
-3.82024e-06
-3.82597e-06
-3.62544e-06
-3.23035e-06
-2.64395e-06
-1.88058e-06
-9.81053e-07
-2.9937e-08
8.28399e-07
1.38301e-06
1.36932e-06
5.09343e-07
-1.42368e-06
-4.53411e-06
-8.75518e-06
-1.3846e-05
-1.94373e-05
-2.51053e-05
-3.04475e-05
-3.51403e-05
-1.96542e-05
-1.41247e-05
-1.02e-05
-7.59345e-06
-5.93714e-06
-4.94356e-06
-4.40821e-06
-4.19029e-06
-4.1932e-06
-4.34977e-06
-4.61174e-06
-4.94295e-06
-5.31524e-06
-5.7057e-06
-6.09466e-06
-6.46475e-06
-6.79988e-06
-7.08499e-06
-7.30632e-06
-7.4501e-06
-7.49308e-06
-7.32839e-06
-6.9703e-06
-6.41687e-06
-5.66882e-06
-4.74476e-06
-3.69801e-06
-2.63664e-06
-1.74204e-06
-1.2762e-06
-1.56434e-06
-2.94315e-06
-5.6789e-06
-9.87973e-06
-1.54401e-05
-2.20458e-05
-2.92384e-05
-3.65098e-05
-4.33901e-05
-4.95074e-05
-2.20877e-05
-1.7441e-05
-1.40399e-05
-1.17124e-05
-1.01867e-05
-9.23771e-06
-8.69874e-06
-8.45051e-06
-8.40837e-06
-8.5115e-06
-8.71495e-06
-8.9842e-06
-9.29188e-06
-9.61544e-06
-9.93543e-06
-1.02345e-05
-1.04967e-05
-1.07069e-05
-1.0852e-05
-1.09188e-05
-1.08082e-05
-1.05033e-05
-1.00059e-05
-9.3087e-06
-8.4127e-06
-7.34274e-06
-6.16771e-06
-5.02457e-06
-4.14064e-06
-3.84152e-06
-4.52771e-06
-6.60797e-06
-1.03954e-05
-1.59994e-05
-2.32632e-05
-3.1781e-05
-4.09878e-05
-5.02782e-05
-5.91082e-05
-6.70485e-05
-2.41756e-05
-2.03167e-05
-1.74071e-05
-1.53586e-05
-1.39767e-05
-1.30896e-05
-1.25642e-05
-1.23014e-05
-1.22284e-05
-1.22911e-05
-1.24484e-05
-1.26678e-05
-1.29232e-05
-1.31927e-05
-1.34572e-05
-1.36997e-05
-1.39041e-05
-1.40553e-05
-1.41388e-05
-1.40947e-05
-1.38522e-05
-1.34239e-05
-1.28002e-05
-1.19704e-05
-1.09371e-05
-9.73353e-06
-8.44784e-06
-7.25262e-06
-6.43192e-06
-6.3901e-06
-7.62098e-06
-1.06221e-05
-1.57631e-05
-2.31525e-05
-3.25681e-05
-4.34926e-05
-5.5236e-05
-6.70831e-05
-7.84091e-05
-8.87127e-05
-2.59709e-05
-2.28075e-05
-2.03536e-05
-1.85797e-05
-1.73522e-05
-1.65433e-05
-1.60491e-05
-1.5789e-05
-1.57014e-05
-1.57393e-05
-1.58656e-05
-1.60501e-05
-1.62681e-05
-1.64988e-05
-1.67236e-05
-1.69256e-05
-1.70889e-05
-1.71975e-05
-1.72152e-05
-1.70365e-05
-1.66825e-05
-1.6144e-05
-1.54036e-05
-1.4449e-05
-1.32858e-05
-1.19581e-05
-1.0578e-05
-9.36174e-06
-8.66289e-06
-8.98282e-06
-1.09306e-05
-1.51137e-05
-2.19709e-05
-3.16094e-05
-4.37271e-05
-5.76741e-05
-7.26184e-05
-8.77229e-05
-0.000102281
-0.000115918
-2.75175e-05
-2.49615e-05
-2.29255e-05
-2.14185e-05
-2.03532e-05
-1.96376e-05
-1.91925e-05
-1.89536e-05
-1.887e-05
-1.89012e-05
-1.90142e-05
-1.91813e-05
-1.93793e-05
-1.95887e-05
-1.97913e-05
-1.99703e-05
-2.01096e-05
-2.01782e-05
-2.00682e-05
-1.97908e-05
-1.93415e-05
-1.87014e-05
-1.78497e-05
-1.6774e-05
-1.54848e-05
-1.404e-05
-1.25808e-05
-1.13761e-05
-1.0864e-05
-1.16646e-05
-1.45286e-05
-2.01993e-05
-2.92032e-05
-4.16477e-05
-5.71384e-05
-7.4874e-05
-9.38669e-05
-0.000113149
-0.000132032
-0.000149085
-2.88512e-05
-2.68204e-05
-2.51638e-05
-2.39135e-05
-2.30163e-05
-2.24081e-05
-2.20302e-05
-2.18323e-05
-2.17729e-05
-2.18177e-05
-2.19376e-05
-2.21072e-05
-2.23046e-05
-2.25118e-05
-2.27107e-05
-2.28841e-05
-2.29982e-05
-2.29576e-05
-2.2755e-05
-2.23936e-05
-2.18555e-05
-2.11166e-05
-2.01544e-05
-1.89575e-05
-1.75434e-05
-1.59867e-05
-1.4463e-05
-1.33044e-05
-1.30503e-05
-1.44639e-05
-1.84693e-05
-2.59786e-05
-3.763e-05
-5.35403e-05
-7.32146e-05
-9.56881e-05
-0.000119815
-0.000144494
-0.000168914
-0.000189625
-3.00014e-05
-2.84204e-05
-2.71056e-05
-2.61003e-05
-2.53753e-05
-2.48879e-05
-2.45955e-05
-2.44594e-05
-2.44461e-05
-2.45269e-05
-2.46759e-05
-2.48697e-05
-2.50871e-05
-2.53117e-05
-2.55251e-05
-2.56877e-05
-2.57091e-05
-2.55765e-05
-2.52986e-05
-2.48586e-05
-2.42319e-05
-2.3392e-05
-2.23161e-05
-2.09955e-05
-1.94558e-05
-1.77912e-05
-1.6218e-05
-1.51418e-05
-1.52217e-05
-1.73917e-05
-2.27855e-05
-3.25238e-05
-4.73913e-05
-6.7533e-05
-9.23571e-05
-0.000120735
-0.000151392
-0.000183556
-0.000213314
-0.000238987
-3.0992e-05
-2.97932e-05
-2.87843e-05
-2.8012e-05
-2.74627e-05
-2.71091e-05
-2.69209e-05
-2.68684e-05
-2.69243e-05
-2.70648e-05
-2.72665e-05
-2.75069e-05
-2.77645e-05
-2.80252e-05
-2.82394e-05
-2.83151e-05
-2.82485e-05
-2.80492e-05
-2.77009e-05
-2.718e-05
-2.64597e-05
-2.55131e-05
-2.43182e-05
-2.28699e-05
-2.12034e-05
-1.94356e-05
-1.78286e-05
-1.68727e-05
-1.7365e-05
-2.04397e-05
-2.74804e-05
-3.98647e-05
-5.85703e-05
-8.38065e-05
-0.000114908
-0.00015061
-0.000189634
-0.000229872
-0.000266715
-0.000298833
-3.18427e-05
-3.09664e-05
-3.02311e-05
-2.96805e-05
-2.93103e-05
-2.91034e-05
-2.90383e-05
-2.90917e-05
-2.92409e-05
-2.94653e-05
-2.97433e-05
-3.00519e-05
-3.03658e-05
-3.06346e-05
-3.07581e-05
-3.07559e-05
-3.06317e-05
-3.03688e-05
-2.99447e-05
-2.93349e-05
-2.85126e-05
-2.74518e-05
-2.61321e-05
-2.45526e-05
-2.27594e-05
-2.08944e-05
-1.92708e-05
-1.8473e-05
-1.94542e-05
-2.35775e-05
-3.25188e-05
-4.79671e-05
-7.11551e-05
-0.000102416
-0.00014107
-0.000185791
-0.000235619
-0.000284551
-0.000330462
-0.000371407
-3.25695e-05
-3.19648e-05
-3.14749e-05
-3.11364e-05
-3.09493e-05
-3.09025e-05
-3.09797e-05
-3.11616e-05
-3.14274e-05
-3.17592e-05
-3.2135e-05
-3.25138e-05
-3.28377e-05
-3.30098e-05
-3.30747e-05
-3.3025e-05
-3.28427e-05
-3.2507e-05
-3.19962e-05
-3.12866e-05
-3.03531e-05
-2.91709e-05
-2.77218e-05
-2.60098e-05
-2.40928e-05
-2.21392e-05
-2.05172e-05
-1.99134e-05
-2.14519e-05
-2.67501e-05
-3.78162e-05
-5.67082e-05
-8.4989e-05
-0.000123204
-0.000170762
-0.000226755
-0.000287401
-0.000348125
-0.000406895
-0.000455602
-3.31857e-05
-3.2811e-05
-3.25433e-05
-3.24099e-05
-3.2411e-05
-3.25379e-05
-3.27765e-05
-3.31087e-05
-3.35126e-05
-3.39717e-05
-3.44231e-05
-3.47935e-05
-3.50339e-05
-3.5175e-05
-3.52026e-05
-3.50985e-05
-3.48444e-05
-3.44217e-05
-3.3811e-05
-3.29908e-05
-3.1938e-05
-3.06295e-05
-2.90495e-05
-2.72073e-05
-2.51728e-05
-2.31421e-05
-2.15406e-05
-2.11619e-05
-2.33107e-05
-2.98767e-05
-4.32309e-05
-6.58513e-05
-9.97121e-05
-0.000145683
-0.000203336
-0.000271905
-0.000345275
-0.000422359
-0.000491518
-0.000552431
-3.37026e-05
-3.35253e-05
-3.34623e-05
-3.35302e-05
-3.37262e-05
-3.40407e-05
-3.44588e-05
-3.49605e-05
-3.5515e-05
-3.60508e-05
-3.64791e-05
-3.68029e-05
-3.70276e-05
-3.71362e-05
-3.71101e-05
-3.69328e-05
-3.65892e-05
-3.60643e-05
-3.53414e-05
-3.44019e-05
-3.32246e-05
-3.17883e-05
-3.00801e-05
-2.81142e-05
-2.59728e-05
-2.38794e-05
-2.23169e-05
-2.21868e-05
-2.49763e-05
-3.28529e-05
-4.85623e-05
-7.50318e-05
-0.00011471
-0.000168937
-0.000237994
-0.000318523
-0.000409285
-0.000499587
-0.000584262
-0.000660904
-3.41301e-05
-3.41266e-05
-3.42569e-05
-3.45257e-05
-3.49246e-05
-3.544e-05
-3.6053e-05
-3.67135e-05
-3.73464e-05
-3.78572e-05
-3.82823e-05
-3.86031e-05
-3.87989e-05
-3.88524e-05
-3.87495e-05
-3.84782e-05
-3.80279e-05
-3.73871e-05
-3.65426e-05
-3.54783e-05
-3.41753e-05
-3.26145e-05
-3.07851e-05
-2.87066e-05
-2.64727e-05
-2.43336e-05
-2.28272e-05
-2.29589e-05
-2.63917e-05
-3.55588e-05
-5.35658e-05
-8.37737e-05
-0.000129094
-0.00019125
-0.000270606
-0.000363286
-0.000472332
-0.000576632
-0.000680556
-0.000777694
-3.44767e-05
-3.46325e-05
-3.49505e-05
-3.54231e-05
-3.60338e-05
-3.67618e-05
-3.7537e-05
-3.82695e-05
-3.89005e-05
-3.94459e-05
-3.98762e-05
-4.01684e-05
-4.03058e-05
-4.02767e-05
-4.00729e-05
-3.9688e-05
-3.91158e-05
-3.83489e-05
-3.73772e-05
-3.61872e-05
-3.4762e-05
-3.30841e-05
-3.11452e-05
-2.89693e-05
-2.66609e-05
-2.44946e-05
-2.30591e-05
-2.34549e-05
-2.75037e-05
-3.78752e-05
-5.79868e-05
-9.15677e-05
-0.000141935
-0.000211185
-0.000298499
-0.000402935
-0.000524999
-0.000645556
-0.000770271
-0.000894276
0.000947852
0.000948259
0.000948625
0.000948947
0.000949223
0.000949449
0.000949627
0.000949759
0.000949858
0.000949961
0.000949961
0.000949858
0.000949759
0.000949627
0.000949449
0.000949223
0.000948947
0.000948625
0.000948259
0.000947852
0.000833191
0.000833461
0.0008337
0.000833907
0.000834079
0.000834215
0.000834317
0.000834388
0.000834441
0.000834496
0.000834496
0.000834441
0.000834388
0.000834317
0.000834215
0.000834079
0.000833907
0.0008337
0.000833461
0.000833191
0.000725821
0.0007259
0.000725965
0.000726014
0.000726045
0.000726059
0.000726057
0.000726044
0.000726032
0.000726037
0.000726037
0.000726032
0.000726044
0.000726057
0.000726059
0.000726045
0.000726014
0.000725965
0.0007259
0.000725821
0.000626345
0.00062621
0.000626081
0.000625953
0.000625828
0.000625705
0.000625587
0.00062548
0.000625397
0.000625358
0.000625358
0.000625397
0.00062548
0.000625587
0.000625705
0.000625828
0.000625953
0.000626081
0.00062621
0.000626345
0.00053532
0.000534981
0.000534665
0.00053437
0.000534095
0.000533841
0.000533612
0.000533415
0.000533262
0.000533178
0.000533178
0.000533262
0.000533415
0.000533612
0.000533841
0.000534095
0.00053437
0.000534665
0.000534981
0.00053532
0.000453194
0.000452688
0.000452222
0.000451792
0.000451396
0.000451036
0.000450715
0.000450442
0.00045023
0.000450107
0.000450107
0.00045023
0.000450442
0.000450715
0.000451036
0.000451396
0.000451792
0.000452222
0.000452688
0.000453194
0.000380217
0.000379602
0.00037904
0.000378525
0.000378054
0.000377625
0.000377245
0.00037692
0.000376668
0.000376518
0.000376518
0.000376668
0.00037692
0.000377245
0.000377625
0.000378054
0.000378525
0.00037904
0.000379602
0.000380217
0.000316374
0.00031572
0.000315128
0.000314587
0.000314093
0.000313643
0.00031324
0.000312895
0.000312625
0.000312462
0.000312462
0.000312625
0.000312895
0.00031324
0.000313643
0.000314093
0.000314587
0.000315128
0.00031572
0.000316374
0.000261368
0.000260746
0.000260188
0.000259683
0.000259219
0.000258793
0.000258408
0.000258073
0.000257807
0.000257646
0.000257646
0.000257807
0.000258073
0.000258408
0.000258793
0.000259219
0.000259683
0.000260188
0.000260746
0.000261368
0.000214645
0.000214114
0.000213648
0.00021323
0.000212846
0.000212487
0.000212153
0.000211856
0.000211615
0.000211468
0.000211468
0.000211615
0.000211856
0.000212153
0.000212487
0.000212846
0.00021323
0.000213648
0.000214114
0.000214645
0.000175447
0.000175052
0.000174721
0.000174432
0.000174164
0.000173905
0.000173651
0.000173414
0.000173214
0.00017309
0.00017309
0.000173214
0.000173414
0.000173651
0.000173905
0.000174164
0.000174432
0.000174721
0.000175052
0.000175447
0.000142893
0.000142658
0.000142488
0.000142353
0.000142227
0.00014209
0.000141936
0.000141773
0.000141625
0.000141532
0.000141532
0.000141625
0.000141773
0.000141936
0.00014209
0.000142227
0.000142353
0.000142488
0.000142658
0.000142893
0.000116049
0.00011598
0.000115978
0.000116008
0.000116036
0.000116033
0.00011599
0.00011591
0.000115819
0.000115759
0.000115759
0.000115819
0.00011591
0.00011599
0.000116033
0.000116036
0.000116008
0.000115978
0.00011598
0.000116049
9.39896e-05
9.40763e-05
9.42376e-05
9.44304e-05
9.4612e-05
9.47466e-05
9.48156e-05
9.48213e-05
9.4788e-05
9.4761e-05
9.4761e-05
9.4788e-05
9.48213e-05
9.48156e-05
9.47466e-05
9.46121e-05
9.44304e-05
9.42376e-05
9.40763e-05
9.39896e-05
7.58555e-05
7.60713e-05
7.63754e-05
7.67169e-05
7.70432e-05
7.73078e-05
7.74842e-05
7.75706e-05
7.75909e-05
7.75929e-05
7.75929e-05
7.75909e-05
7.75706e-05
7.74842e-05
7.73078e-05
7.70432e-05
7.67169e-05
7.63754e-05
7.60713e-05
7.58555e-05
6.08672e-05
6.11714e-05
6.15857e-05
6.20508e-05
6.25026e-05
6.28823e-05
6.31546e-05
6.33121e-05
6.33788e-05
6.34047e-05
6.34047e-05
6.33788e-05
6.33121e-05
6.31546e-05
6.28823e-05
6.25026e-05
6.20508e-05
6.15857e-05
6.11714e-05
6.08672e-05
4.83263e-05
4.8669e-05
4.91523e-05
4.9708e-05
5.02592e-05
5.07332e-05
5.10844e-05
5.13001e-05
5.14035e-05
5.14473e-05
5.14473e-05
5.14035e-05
5.13001e-05
5.10844e-05
5.07332e-05
5.02592e-05
4.9708e-05
4.91523e-05
4.8669e-05
4.83263e-05
3.76214e-05
3.79457e-05
3.84501e-05
3.90568e-05
3.9675e-05
4.02167e-05
4.06254e-05
4.08825e-05
4.1011e-05
4.10656e-05
4.10656e-05
4.1011e-05
4.08825e-05
4.06254e-05
4.02167e-05
3.9675e-05
3.90568e-05
3.84501e-05
3.79458e-05
3.76215e-05
2.8217e-05
2.846e-05
2.89313e-05
2.95434e-05
3.01902e-05
3.07672e-05
3.12072e-05
3.14856e-05
3.1625e-05
3.16826e-05
3.16826e-05
3.1625e-05
3.14856e-05
3.12072e-05
3.07672e-05
3.01903e-05
2.95434e-05
2.89314e-05
2.846e-05
2.82171e-05
1.96363e-05
1.97291e-05
2.01073e-05
2.06723e-05
2.13027e-05
2.18762e-05
2.23156e-05
2.25908e-05
2.27246e-05
2.27761e-05
2.27761e-05
2.27246e-05
2.25908e-05
2.23156e-05
2.18762e-05
2.13027e-05
2.06723e-05
2.01073e-05
1.97291e-05
1.96363e-05
1.14422e-05
1.13091e-05
1.15263e-05
1.19837e-05
1.2544e-05
1.30666e-05
1.34667e-05
1.3709e-05
1.38174e-05
1.38523e-05
1.38523e-05
1.38174e-05
1.3709e-05
1.34667e-05
1.30666e-05
1.2544e-05
1.19837e-05
1.15263e-05
1.13091e-05
1.14423e-05
3.21666e-06
2.77193e-06
2.75009e-06
3.02793e-06
3.45292e-06
3.86552e-06
4.17796e-06
4.34953e-06
4.40681e-06
4.41182e-06
4.41182e-06
4.40681e-06
4.34953e-06
4.17795e-06
3.86552e-06
3.45292e-06
3.02794e-06
2.75011e-06
2.77195e-06
3.2167e-06
-5.4618e-06
-6.31827e-06
-6.67242e-06
-6.66224e-06
-6.45416e-06
-6.22844e-06
-6.06546e-06
-6.03168e-06
-6.09743e-06
-6.16374e-06
-6.16374e-06
-6.09743e-06
-6.03168e-06
-6.06547e-06
-6.22844e-06
-6.45416e-06
-6.66223e-06
-6.67239e-06
-6.31824e-06
-5.46176e-06
-1.50413e-05
-1.64316e-05
-1.72339e-05
-1.76041e-05
-1.77171e-05
-1.78675e-05
-1.80353e-05
-1.8206e-05
-1.83463e-05
-1.84518e-05
-1.84518e-05
-1.83463e-05
-1.8206e-05
-1.80353e-05
-1.78675e-05
-1.77171e-05
-1.7604e-05
-1.72339e-05
-1.64316e-05
-1.50413e-05
-2.6023e-05
-2.8102e-05
-2.95027e-05
-3.04546e-05
-3.11649e-05
-3.15614e-05
-3.19063e-05
-3.22337e-05
-3.25022e-05
-3.26773e-05
-3.26773e-05
-3.25022e-05
-3.22338e-05
-3.19063e-05
-3.15615e-05
-3.11649e-05
-3.04546e-05
-2.95026e-05
-2.8102e-05
-2.60229e-05
-3.89911e-05
-4.19635e-05
-4.42408e-05
-4.5869e-05
-4.69222e-05
-4.77218e-05
-4.84152e-05
-4.90062e-05
-4.94454e-05
-4.97077e-05
-4.97077e-05
-4.94454e-05
-4.90062e-05
-4.84152e-05
-4.77218e-05
-4.69222e-05
-4.58689e-05
-4.42408e-05
-4.19635e-05
-3.89911e-05
-5.46505e-05
-5.88655e-05
-6.20675e-05
-6.42682e-05
-6.59282e-05
-6.72892e-05
-6.84426e-05
-6.93715e-05
-7.0026e-05
-7.03961e-05
-7.03961e-05
-7.0026e-05
-6.93715e-05
-6.84426e-05
-6.72892e-05
-6.59282e-05
-6.42682e-05
-6.20675e-05
-5.88654e-05
-5.46505e-05
-7.39077e-05
-7.95548e-05
-8.35995e-05
-8.66696e-05
-8.91547e-05
-9.12385e-05
-9.29675e-05
-9.4312e-05
-9.52295e-05
-9.57297e-05
-9.57297e-05
-9.52295e-05
-9.4312e-05
-9.29675e-05
-9.12385e-05
-8.91547e-05
-8.66696e-05
-8.35995e-05
-7.95547e-05
-7.39077e-05
-9.78535e-05
-0.000104709
-0.000109952
-0.000114186
-0.000117723
-0.000120694
-0.000123112
-0.000124947
-0.000126173
-0.000126825
-0.000126825
-0.000126173
-0.000124947
-0.000123112
-0.000120694
-0.000117723
-0.000114186
-0.000109952
-0.000104709
-9.78534e-05
-0.000126982
-0.000135545
-0.00014238
-0.000148094
-0.000152907
-0.000156911
-0.000160111
-0.000162496
-0.000164067
-0.000164887
-0.000164887
-0.000164067
-0.000162496
-0.000160111
-0.000156911
-0.000152907
-0.000148094
-0.00014238
-0.000135545
-0.000126982
-0.000162688
-0.000173466
-0.000182311
-0.00018981
-0.000196077
-0.000201211
-0.000205241
-0.000208198
-0.000210126
-0.000211118
-0.000211118
-0.000210126
-0.000208198
-0.000205241
-0.000201211
-0.000196077
-0.00018981
-0.000182311
-0.000173466
-0.000162688
-0.000206476
-0.000220033
-0.000231286
-0.000240797
-0.00024859
-0.000254852
-0.000259679
-0.000263174
-0.00026543
-0.00026658
-0.00026658
-0.00026543
-0.000263174
-0.000259679
-0.000254852
-0.00024859
-0.000240797
-0.000231286
-0.000220033
-0.000206476
-0.000259999
-0.000276895
-0.000290838
-0.000302447
-0.000311612
-0.000318828
-0.000324304
-0.000328225
-0.000330745
-0.000332023
-0.000332023
-0.000330745
-0.000328225
-0.000324304
-0.000318828
-0.000311612
-0.000302447
-0.000290838
-0.000276895
-0.000259998
-0.000325115
-0.000345809
-0.000362213
-0.000375436
-0.000385761
-0.000393687
-0.000399584
-0.000403748
-0.000406402
-0.000407739
-0.000407739
-0.000406402
-0.000403748
-0.000399584
-0.000393687
-0.000385761
-0.000375436
-0.000362213
-0.000345809
-0.000325115
-0.000403099
-0.000427164
-0.000445899
-0.000460361
-0.000471311
-0.00047948
-0.000485425
-0.000489555
-0.00049216
-0.000493467
-0.000493467
-0.00049216
-0.000489555
-0.000485425
-0.00047948
-0.000471311
-0.000460361
-0.000445899
-0.000427164
-0.000403099
-0.000494459
-0.000521921
-0.000542168
-0.000557004
-0.000567798
-0.000575589
-0.000581117
-0.000584888
-0.00058724
-0.000588419
-0.000588419
-0.00058724
-0.000584888
-0.000581117
-0.000575589
-0.000567798
-0.000557004
-0.000542168
-0.000521921
-0.000494459
-0.000600139
-0.000630038
-0.000650425
-0.000664423
-0.000674114
-0.000680844
-0.000685479
-0.000688573
-0.000690479
-0.00069144
-0.00069144
-0.000690479
-0.000688573
-0.000685479
-0.000680844
-0.000674114
-0.000664423
-0.000650425
-0.000630038
-0.000600139
-0.000720196
-0.000750734
-0.000769359
-0.000781082
-0.000788705
-0.000793751
-0.000797095
-0.000799264
-0.000800581
-0.000801256
-0.000801256
-0.000800581
-0.000799264
-0.000797095
-0.000793751
-0.000788705
-0.000781082
-0.000769359
-0.000750734
-0.000720196
-0.00085431
-0.000882594
-0.000897037
-0.000905018
-0.000909787
-0.000912731
-0.000914562
-0.000915686
-0.000916355
-0.000916735
-0.000916735
-0.000916355
-0.000915686
-0.000914562
-0.000912731
-0.000909787
-0.000905018
-0.000897037
-0.000882595
-0.00085431
-0.0010023
-0.00102354
-0.00103076
-0.00103392
-0.00103553