/*--------------------------------*- C++ -*----------------------------------*\
  =========                 |
  \\      /  F ield         | OpenFOAM: The Open Source CFD Toolbox
   \\    /   O peration     | Website:  https://openfoam.org
    \\  /    A nd           | Version:  6
     \\/     M anipulation  |
\*---------------------------------------------------------------------------*/
FoamFile
{
    version     2.0;
    format      ascii;
    class       volVectorField;
    location    "20";
    object      elec;
}
// * * * * * * * * * * * * * * * * * * * * * * * * * * * * * * * * * * * * * //

dimensions      [1 1 -3 0 0 -1 0];

internalField   nonuniform List<vector> 
8800
(
(-12.9308 -97283.8 -0)
(-32.9123 -97329.4 -0)
(-45.7292 -97405.2 -0)
(-56.881 -97505.5 -0)
(-67.6293 -97628 -0)
(-78.3233 -97772.1 -0)
(-88.9153 -97937.5 -0)
(-99.3305 -98123.8 -0)
(-109.504 -98330.5 -0)
(-119.385 -98557.2 -0)
(-128.93 -98803.2 -0)
(-138.105 -99067.9 -0)
(-146.881 -99350.4 -0)
(-155.231 -99650 -0)
(-163.131 -99965.8 -0)
(-170.558 -100297 -0)
(-177.491 -100642 -0)
(-183.907 -101001 -0)
(-189.783 -101373 -0)
(-195.093 -101755 -0)
(-199.812 -102147 -0)
(-203.909 -102549 -0)
(-207.354 -102958 -0)
(-210.113 -103373 -0)
(-212.152 -103793 -0)
(-213.44 -104217 -0)
(-213.948 -104642 -0)
(-213.654 -105068 -0)
(-212.545 -105493 -0)
(-210.62 -105914 -0)
(-207.888 -106332 -0)
(-204.364 -106742 -0)
(-200.073 -107146 -0)
(-195.006 -107540 -0)
(-189.115 -107923 -0)
(-182.357 -108294 -0)
(-174.709 -108650 -0)
(-166.163 -108990 -0)
(-156.722 -109313 -0)
(-146.402 -109615 -0)
(-32.6611 -92200.4 -0)
(-88.48 -92239.5 -0)
(-130.299 -92309.6 -0)
(-165.85 -92405.1 -0)
(-198.992 -92523.7 -0)
(-231.181 -92664.1 -0)
(-262.764 -92825.7 -0)
(-293.724 -93008 -0)
(-323.952 -93210.4 -0)
(-353.324 -93432.6 -0)
(-381.729 -93673.9 -0)
(-409.067 -93933.7 -0)
(-435.247 -94211.2 -0)
(-460.19 -94505.6 -0)
(-483.82 -94816.3 -0)
(-506.068 -95142.2 -0)
(-526.863 -95482.6 -0)
(-546.136 -95836.3 -0)
(-563.813 -96202.5 -0)
(-579.818 -96580 -0)
(-594.066 -96967.7 -0)
(-606.47 -97364.4 -0)
(-616.933 -97769 -0)
(-625.358 -98180 -0)
(-631.643 -98596.1 -0)
(-635.692 -99015.9 -0)
(-637.419 -99437.9 -0)
(-636.755 -99860.4 -0)
(-633.656 -100282 -0)
(-628.109 -100701 -0)
(-620.14 -101115 -0)
(-609.845 -101524 -0)
(-597.265 -101926 -0)
(-582.287 -102318 -0)
(-564.778 -102700 -0)
(-544.648 -103070 -0)
(-521.843 -103425 -0)
(-496.34 -103764 -0)
(-468.156 -104086 -0)
(-437.344 -104388 -0)
(-52.1072 -87718.4 -0)
(-142.104 -87757.7 -0)
(-211.302 -87825.8 -0)
(-271.021 -87918.4 -0)
(-326.611 -88033.7 -0)
(-380.3 -88170.7 -0)
(-432.764 -88328.8 -0)
(-484.091 -88507.3 -0)
(-534.176 -88705.9 -0)
(-582.858 -88924 -0)
(-629.968 -89161.1 -0)
(-675.35 -89416.6 -0)
(-718.858 -89689.7 -0)
(-760.358 -89979.8 -0)
(-799.724 -90286.2 -0)
(-836.835 -90607.8 -0)
(-871.571 -90944 -0)
(-903.813 -91293.8 -0)
(-933.435 -91656.2 -0)
(-960.304 -92030.1 -0)
(-984.278 -92414.5 -0)
(-1005.21 -92808.2 -0)
(-1022.93 -93210 -0)
(-1037.28 -93618.7 -0)
(-1048.08 -94032.7 -0)
(-1055.17 -94450.8 -0)
(-1058.41 -94871.3 -0)
(-1057.66 -95292.8 -0)
(-1052.85 -95713.5 -0)
(-1043.98 -96132 -0)
(-1031.19 -96546.7 -0)
(-1014.65 -96956.3 -0)
(-994.193 -97359 -0)
(-969.587 -97753.2 -0)
(-940.675 -98137 -0)
(-907.339 -98508.6 -0)
(-869.501 -98866.2 -0)
(-827.133 -99207.8 -0)
(-780.269 -99531.6 -0)
(-729.002 -99835.8 -0)
(-72.003 -83786.3 -0)
(-195.864 -83826.3 -0)
(-290.981 -83894 -0)
(-373.812 -83985.1 -0)
(-451.309 -84098.2 -0)
(-526.199 -84232.5 -0)
(-599.336 -84387.5 -0)
(-670.861 -84562.8 -0)
(-740.66 -84758.1 -0)
(-808.537 -84972.7 -0)
(-874.277 -85206.3 -0)
(-937.67 -85458.2 -0)
(-998.518 -85727.9 -0)
(-1056.63 -86014.7 -0)
(-1111.84 -86317.7 -0)
(-1163.96 -86636.4 -0)
(-1212.83 -86969.8 -0)
(-1258.27 -87317 -0)
(-1300.11 -87677.2 -0)
(-1338.15 -88049.3 -0)
(-1372.18 -88432.3 -0)
(-1402 -88825 -0)
(-1427.36 -89226.3 -0)
(-1448.03 -89634.9 -0)
(-1463.75 -90049.4 -0)
(-1474.29 -90468.3 -0)
(-1479.43 -90890.3 -0)
(-1478.99 -91313.6 -0)
(-1472.9 -91736.7 -0)
(-1461.26 -92158.1 -0)
(-1444.38 -92576.6 -0)
(-1422.18 -92990.6 -0)
(-1394.22 -93398.3 -0)
(-1360.29 -93797.6 -0)
(-1320.19 -94186.9 -0)
(-1273.79 -94564.1 -0)
(-1220.99 -94927.3 -0)
(-1161.77 -95274.5 -0)
(-1096.17 -95603.9 -0)
(-1024.34 -95913.5 -0)
(-92.1127 -80346.9 -0)
(-249.792 -80387.1 -0)
(-370.108 -80454.6 -0)
(-475.202 -80544.9 -0)
(-573.947 -80656.4 -0)
(-669.596 -80788.7 -0)
(-763.122 -80941.4 -0)
(-854.665 -81114.2 -0)
(-944.073 -81306.8 -0)
(-1031.1 -81518.8 -0)
(-1115.48 -81749.8 -0)
(-1196.95 -81999.2 -0)
(-1275.26 -82266.5 -0)
(-1350.17 -82551.1 -0)
(-1421.45 -82852.3 -0)
(-1488.87 -83169.4 -0)
(-1552.21 -83501.7 -0)
(-1611.25 -83848.2 -0)
(-1665.73 -84208.2 -0)
(-1715.41 -84580.7 -0)
(-1760.01 -84964.7 -0)
(-1799.23 -85359 -0)
(-1832.78 -85762.5 -0)
(-1860.32 -86173.9 -0)
(-1881.52 -86591.8 -0)
(-1896.06 -87014.9 -0)
(-1903.64 -87441.6 -0)
(-1904.08 -87870.3 -0)
(-1897.36 -88299.5 -0)
(-1883.91 -88728 -0)
(-1863.74 -89154.5 -0)
(-1836.3 -89577 -0)
(-1801.22 -89993.5 -0)
(-1758.23 -90402.1 -0)
(-1707.12 -90800.7 -0)
(-1647.73 -91187.3 -0)
(-1579.95 -91559.9 -0)
(-1503.75 -91916.4 -0)
(-1419.22 -92254.8 -0)
(-1326.54 -92573.1 -0)
(-112.239 -77342.2 -0)
(-303.627 -77382.2 -0)
(-448.772 -77449.4 -0)
(-575.62 -77538.9 -0)
(-695.13 -77649.4 -0)
(-811.171 -77780.2 -0)
(-924.849 -77931.3 -0)
(-1036.28 -78102.4 -0)
(-1145.27 -78293.3 -0)
(-1251.49 -78503.6 -0)
(-1354.64 -78733 -0)
(-1454.37 -78981.1 -0)
(-1550.4 -79247.4 -0)
(-1642.43 -79531.3 -0)
(-1730.17 -79832.4 -0)
(-1813.34 -80149.8 -0)
(-1891.67 -80483 -0)
(-1964.86 -80831.1 -0)
(-2032.61 -81193.3 -0)
(-2094.58 -81568.8 -0)
(-2150.43 -81956.4 -0)
(-2199.78 -82355.3 -0)
(-2242.24 -82764.1 -0)
(-2277.37 -83181.6 -0)
(-2304.78 -83606.5 -0)
(-2324.03 -84037.4 -0)
(-2334.81 -84472.7 -0)
(-2336.94 -84910.9 -0)
(-2330.67 -85350.6 -0)
(-2316.31 -85790.8 -0)
(-2293.38 -86229.5 -0)
(-2261.16 -86664.6 -0)
(-2219.28 -87094.1 -0)
(-2167.45 -87515.9 -0)
(-2105.42 -87927.9 -0)
(-2033.01 -88327.8 -0)
(-1950.1 -88713.5 -0)
(-1856.67 -89082.9 -0)
(-1752.83 -89433.8 -0)
(-1638.82 -89764 -0)
(-132.143 -74717.2 -0)
(-356.959 -74756.5 -0)
(-526.799 -74822.9 -0)
(-675.216 -74911.7 -0)
(-815.279 -75021.3 -0)
(-951.541 -75151.3 -0)
(-1085.28 -75301.4 -0)
(-1216.6 -75471.6 -0)
(-1345.25 -75661.7 -0)
(-1470.85 -75871.5 -0)
(-1593 -76100.7 -0)
(-1711.35 -76348.9 -0)
(-1825.51 -76615.7 -0)
(-1935.14 -76900.8 -0)
(-2039.91 -77203.6 -0)
(-2139.48 -77523.5 -0)
(-2233.49 -77859.8 -0)
(-2321.6 -78211.9 -0)
(-2403.41 -78579.1 -0)
(-2478.53 -78960.3 -0)
(-2546.5 -79354.8 -0)
(-2606.87 -79761.4 -0)
(-2659.14 -80178.9 -0)
(-2702.78 -80606.2 -0)
(-2737.29 -81041.9 -0)
(-2762.18 -81484.4 -0)
(-2777.1 -81932.4 -0)
(-2781.98 -82384.4 -0)
(-2777.29 -82839.2 -0)
(-2762.8 -83295.3 -0)
(-2737.56 -83750.4 -0)
(-2700.94 -84202.3 -0)
(-2652.52 -84648.9 -0)
(-2591.97 -85087.9 -0)
(-2519 -85517 -0)
(-2433.4 -85933.9 -0)
(-2335.07 -86336.4 -0)
(-2224 -86722.1 -0)
(-2100.31 -87088.7 -0)
(-1964.3 -87434 -0)
(-151.549 -72420.8 -0)
(-409.306 -72458.8 -0)
(-603.93 -72524 -0)
(-774.04 -72612 -0)
(-934.734 -72721 -0)
(-1091.29 -72850.5 -0)
(-1245.19 -73000.4 -0)
(-1396.57 -73170.6 -0)
(-1545.13 -73361 -0)
(-1690.43 -73571.4 -0)
(-1832.02 -73801.7 -0)
(-1969.47 -74051.6 -0)
(-2102.35 -74320.8 -0)
(-2230.26 -74608.9 -0)
(-2352.8 -74915.5 -0)
(-2469.58 -75240.1 -0)
(-2580.16 -75582.1 -0)
(-2684.13 -75940.8 -0)
(-2781.01 -76315.7 -0)
(-2870.3 -76705.7 -0)
(-2951.46 -77110.1 -0)
(-3023.92 -77527.8 -0)
(-3087.08 -77957.6 -0)
(-3140.3 -78398.2 -0)
(-3182.99 -78848.4 -0)
(-3214.6 -79306.7 -0)
(-3234.8 -79771.6 -0)
(-3243.72 -80241.6 -0)
(-3241.55 -80715.8 -0)
(-3227.46 -81191.7 -0)
(-3200.37 -81667.1 -0)
(-3159.65 -82139.7 -0)
(-3104.85 -82607.1 -0)
(-3035.57 -83067 -0)
(-2951.51 -83516.9 -0)
(-2852.44 -83954.3 -0)
(-2738.25 -84376.8 -0)
(-2608.95 -84781.9 -0)
(-2464.69 -85167.2 -0)
(-2305.82 -85530.3 -0)
(-170.212 -70406.5 -0)
(-460.236 -70442.9 -0)
(-679.926 -70506.6 -0)
(-872.134 -70593.6 -0)
(-1053.82 -70702.1 -0)
(-1230.98 -70831.7 -0)
(-1405.38 -70982 -0)
(-1577.19 -71153.1 -0)
(-1746.09 -71344.9 -0)
(-1911.59 -71557.3 -0)
(-2073.21 -71790.2 -0)
(-2230.43 -72043.3 -0)
(-2382.79 -72316.6 -0)
(-2529.82 -72609.7 -0)
(-2671.06 -72922.2 -0)
(-2806.04 -73253.7 -0)
(-2934.26 -73603.8 -0)
(-3055.2 -73971.8 -0)
(-3168.31 -74357.1 -0)
(-3272.97 -74758.9 -0)
(-3368.55 -75176.3 -0)
(-3454.33 -75608.3 -0)
(-3529.61 -76053.7 -0)
(-3593.65 -76511.3 -0)
(-3645.74 -76979.7 -0)
(-3685.31 -77457.5 -0)
(-3712.04 -77943.1 -0)
(-3726.19 -78435.3 -0)
(-3727.33 -78932.3 -0)
(-3714.12 -79431.8 -0)
(-3685.55 -79931.1 -0)
(-3640.97 -80427.9 -0)
(-3579.84 -80919.6 -0)
(-3501.73 -81403.7 -0)
(-3406.3 -81877.6 -0)
(-3293.32 -82338.6 -0)
(-3162.68 -82784 -0)
(-3014.41 -83211.4 -0)
(-2848.69 -83618 -0)
(-2665.93 -84001.4 -0)
(-187.955 -68633 -0)
(-509.439 -68667.5 -0)
(-754.628 -68729.5 -0)
(-969.578 -68815.6 -0)
(-1172.86 -68923.9 -0)
(-1371.2 -69053.9 -0)
(-1566.62 -69205.4 -0)
(-1759.43 -69378.2 -0)
(-1949.29 -69572.4 -0)
(-2135.69 -69788 -0)
(-2318.08 -70024.8 -0)
(-2495.92 -70282.9 -0)
(-2668.68 -70561.9 -0)
(-2835.84 -70861.8 -0)
(-2996.85 -71182.3 -0)
(-3151.19 -71523 -0)
(-3298.26 -71883.4 -0)
(-3437.45 -72263.2 -0)
(-3568.1 -72661.5 -0)
(-3689.49 -73077.8 -0)
(-3800.83 -73511 -0)
(-3901.32 -73960.3 -0)
(-3990.09 -74424.5 -0)
(-4066.3 -74902.2 -0)
(-4129.15 -75392.2 -0)
(-4178.02 -75892.9 -0)
(-4212.62 -76402.8 -0)
(-4232.95 -76920.5 -0)
(-4238.03 -77443.8 -0)
(-4226.19 -77969.9 -0)
(-4196.49 -78496.4 -0)
(-4148.19 -79020.6 -0)
(-4080.71 -79539.7 -0)
(-3993.54 -80051 -0)
(-3886.35 -80551.8 -0)
(-3758.89 -81039.1 -0)
(-3611.07 -81510.2 -0)
(-3442.94 -81962.2 -0)
(-3254.74 -82392.6 -0)
(-3046.89 -82798.6 -0)
(-204.681 -67064.2 -0)
(-556.744 -67096.6 -0)
(-827.977 -67156.9 -0)
(-1066.5 -67242 -0)
(-1292.19 -67350.4 -0)
(-1512.47 -67481.3 -0)
(-1729.68 -67634.5 -0)
(-1944.24 -67809.9 -0)
(-2155.85 -68007.5 -0)
(-2363.99 -68227.4 -0)
(-2568.08 -68469.5 -0)
(-2767.53 -68733.8 -0)
(-2961.76 -69020.2 -0)
(-3150.18 -69328.6 -0)
(-3332.2 -69658.9 -0)
(-3507.17 -70010.6 -0)
(-3674.44 -70383.6 -0)
(-3833.29 -70777.2 -0)
(-3982.92 -71190.9 -0)
(-4122.5 -71624 -0)
(-4251.1 -72075.7 -0)
(-4367.78 -72545 -0)
(-4471.53 -73030.6 -0)
(-4561.36 -73531.4 -0)
(-4636.39 -74045.9 -0)
(-4695.9 -74572.5 -0)
(-4739.69 -75109.7 -0)
(-4767.18 -75655.8 -0)
(-4776.72 -76208.1 -0)
(-4766.74 -76763.8 -0)
(-4736.2 -77320.3 -0)
(-4684.28 -77874.7 -0)
(-4610.31 -78424 -0)
(-4513.79 -78965.3 -0)
(-4394.32 -79495.5 -0)
(-4251.7 -80011.6 -0)
(-4085.86 -80510.7 -0)
(-3896.87 -80989.9 -0)
(-3685 -81446.1 -0)
(-3450.74 -81876.7 -0)
(-220.366 -65668.4 -0)
(-602.116 -65698.7 -0)
(-900.004 -65757.3 -0)
(-1163.07 -65841.6 -0)
(-1412.17 -65950.2 -0)
(-1655.33 -66082.5 -0)
(-1895.24 -66238 -0)
(-2132.46 -66416.7 -0)
(-2366.76 -66618.6 -0)
(-2597.63 -66843.7 -0)
(-2824.47 -67092.2 -0)
(-3046.66 -67364 -0)
(-3263.55 -67659.1 -0)
(-3474.51 -67977.6 -0)
(-3678.85 -68319.1 -0)
(-3875.87 -68683.6 -0)
(-4064.8 -69070.8 -0)
(-4244.79 -69480.1 -0)
(-4414.96 -69911.2 -0)
(-4574.3 -70363.2 -0)
(-4721.76 -70835.5 -0)
(-4856.21 -71326.9 -0)
(-4976.52 -71836.4 -0)
(-5081.54 -72362.6 -0)
(-5170.24 -72904 -0)
(-5241.82 -73459.2 -0)
(-5295.94 -74026.2 -0)
(-5331.38 -74603.1 -0)
(-5346.08 -75187 -0)
(-5338.45 -75774.9 -0)
(-5307.35 -76364 -0)
(-5251.87 -76951.1 -0)
(-5171.28 -77533.2 -0)
(-5065.01 -78106.9 -0)
(-4932.7 -78669 -0)
(-4774.15 -79216.4 -0)
(-4589.32 -79745.9 -0)
(-4378.34 -80254.3 -0)
(-4141.52 -80738.6 -0)
(-3879.41 -81195.7 -0)
(-235.044 -64418.3 -0)
(-645.624 -64446.7 -0)
(-970.816 -64503.6 -0)
(-1259.48 -64587.3 -0)
(-1533.09 -64696.4 -0)
(-1800.22 -64830.4 -0)
(-2063.88 -64988.6 -0)
(-2324.82 -65171.2 -0)
(-2582.88 -65378 -0)
(-2837.6 -65609.3 -0)
(-3088.35 -65865 -0)
(-3334.49 -66145.4 -0)
(-3575.33 -66450.3 -0)
(-3810.18 -66779.9 -0)
(-4038.28 -67134.1 -0)
(-4258.82 -67512.6 -0)
(-4470.95 -67915.4 -0)
(-4673.69 -68342 -0)
(-4866.01 -68791.9 -0)
(-5046.78 -69264.5 -0)
(-5214.77 -69759 -0)
(-5368.69 -70274.4 -0)
(-5507.21 -70809.6 -0)
(-5629.04 -71363.3 -0)
(-5732.97 -71933.8 -0)
(-5818.08 -72519.5 -0)
(-5883.64 -73118.5 -0)
(-5927.9 -73728.3 -0)
(-5948.5 -74346 -0)
(-5943.77 -74968.4 -0)
(-5912.43 -75592.5 -0)
(-5853.46 -76214.9 -0)
(-5766.07 -76832.1 -0)
(-5649.66 -77440.7 -0)
(-5503.88 -78037.3 -0)
(-5328.57 -78618.4 -0)
(-5123.73 -79180.6 -0)
(-4889.55 -79720.6 -0)
(-4626.39 -80235.1 -0)
(-4334.84 -80720.9 -0)
(-248.791 -63290.3 -0)
(-687.416 -63317 -0)
(-1040.57 -63372.4 -0)
(-1355.93 -63455.6 -0)
(-1655.25 -63565.5 -0)
(-1947.51 -63701.4 -0)
(-2236.08 -63862.8 -0)
(-2521.88 -64049.7 -0)
(-2804.87 -64262 -0)
(-3084.62 -64500 -0)
(-3360.53 -64763.7 -0)
(-3631.93 -65053.2 -0)
(-3898.09 -65368.8 -0)
(-4158.25 -65710.4 -0)
(-4411.59 -66078.1 -0)
(-4657.22 -66471.7 -0)
(-4894.14 -66891.1 -0)
(-5121.29 -67336 -0)
(-5337.48 -67806 -0)
(-5541.41 -68300.4 -0)
(-5731.69 -68818.5 -0)
(-5906.84 -69359.3 -0)
(-6065.34 -69921.8 -0)
(-6205.67 -70504.4 -0)
(-6326.43 -71105.6 -0)
(-6426.57 -71723.6 -0)
(-6504.82 -72356.5 -0)
(-6558.85 -73001.2 -0)
(-6586.18 -73654.7 -0)
(-6584.97 -74313.9 -0)
(-6553.79 -74975.3 -0)
(-6491.47 -75635.3 -0)
(-6397.16 -76290.2 -0)
(-6270.23 -76936.4 -0)
(-6110.36 -77570 -0)
(-5917.43 -78187.4 -0)
(-5691.51 -78784.9 -0)
(-5432.83 -79359 -0)
(-5141.83 -79906.2 -0)
(-4819.16 -80423 -0)
(-261.711 -62264.2 -0)
(-727.688 -62289.3 -0)
(-1109.43 -62343.4 -0)
(-1452.61 -62426.3 -0)
(-1778.86 -62537.1 -0)
(-2097.5 -62675.2 -0)
(-2412.17 -62840 -0)
(-2724.05 -63031.5 -0)
(-3033.2 -63249.7 -0)
(-3339.25 -63494.7 -0)
(-3641.61 -63766.8 -0)
(-3939.61 -64066.1 -0)
(-4232.5 -64392.8 -0)
(-4519.45 -64747 -0)
(-4799.58 -65128.7 -0)
(-5071.88 -65538.1 -0)
(-5335.27 -65974.8 -0)
(-5588.55 -66438.8 -0)
(-5830.37 -66929.6 -0)
(-6059.29 -67446.6 -0)
(-6273.7 -67989.3 -0)
(-6471.95 -68556.6 -0)
(-6652.26 -69147.4 -0)
(-6812.9 -69760.3 -0)
(-6952.21 -70393.6 -0)
(-7068.94 -71045.5 -0)
(-7161.21 -71713.7 -0)
(-7226.15 -72395.1 -0)
(-7261.2 -73086.6 -0)
(-7264.31 -73784.6 -0)
(-7233.82 -74485.7 -0)
(-7168.42 -75185.9 -0)
(-7067.15 -75881.2 -0)
(-6929.39 -76567.7 -0)
(-6754.86 -77241.2 -0)
(-6543.49 -77897.8 -0)
(-6295.38 -78533.7 -0)
(-6010.85 -79144.8 -0)
(-5690.43 -79727.6 -0)
(-5334.8 -80278.2 -0)
(-273.921 -61322.3 -0)
(-766.661 -61346.1 -0)
(-1177.61 -61399.2 -0)
(-1549.68 -61482 -0)
(-1904.08 -61593.8 -0)
(-2250.34 -61734.1 -0)
(-2592.38 -61902.4 -0)
(-2931.57 -62098.7 -0)
(-3268.14 -62322.9 -0)
(-3601.77 -62575.2 -0)
(-3931.92 -62855.9 -0)
(-4257.91 -63165.2 -0)
(-4578.96 -63503.2 -0)
(-4894.2 -63870.2 -0)
(-5202.67 -64266.4 -0)
(-5503.3 -64691.7 -0)
(-5794.87 -65146.1 -0)
(-6076.04 -65629.5 -0)
(-6345.34 -66141.6 -0)
(-6601.13 -66681.9 -0)
(-6841.62 -67249.7 -0)
(-7064.92 -67844.1 -0)
(-7269.02 -68464.1 -0)
(-7451.92 -69108.3 -0)
(-7611.68 -69774.9 -0)
(-7746.67 -70462 -0)
(-7854.44 -71167.1 -0)
(-7931.71 -71887 -0)
(-7975.69 -72618.4 -0)
(-7984.09 -73357.6 -0)
(-7955.05 -74100.9 -0)
(-7887.04 -74844.1 -0)
(-7778.96 -75582.8 -0)
(-7630.2 -76312.8 -0)
(-7440.51 -77029.6 -0)
(-7209.87 -77728.8 -0)
(-6938.48 -78406.3 -0)
(-6626.72 -79058 -0)
(-6275.19 -79679.6 -0)
(-5884.63 -80267.2 -0)
(-285.586 -60449.5 -0)
(-804.605 -60472.4 -0)
(-1245.25 -60524.6 -0)
(-1647.24 -60607.4 -0)
(-2031 -60720.3 -0)
(-2406.11 -60862.9 -0)
(-2776.76 -61034.7 -0)
(-3144.52 -61235.7 -0)
(-3509.76 -61466 -0)
(-3872.27 -61725.6 -0)
(-4231.53 -62014.8 -0)
(-4586.9 -62334 -0)
(-4937.56 -62683.3 -0)
(-5282.61 -63063.2 -0)
(-5621.02 -63473.7 -0)
(-5951.63 -63915 -0)
(-6273.12 -64387.1 -0)
(-6584.03 -64890.1 -0)
(-6882.72 -65423.6 -0)
(-7167.36 -65987.2 -0)
(-7435.97 -66580.5 -0)
(-7686.41 -67202.6 -0)
(-7916.41 -67852.4 -0)
(-8123.65 -68528.6 -0)
(-8305.96 -69229.5 -0)
(-8461.16 -69953.1 -0)
(-8586.17 -70696.6 -0)
(-8677.44 -71456.8 -0)
(-8731.87 -72230.3 -0)
(-8746.86 -73013.2 -0)
(-8720.27 -73801.6 -0)
(-8650.34 -74590.8 -0)
(-8535.85 -75376.3 -0)
(-8376.1 -76153.3 -0)
(-8170.89 -76917.2 -0)
(-7920.27 -77663 -0)
(-7624.52 -78386.3 -0)
(-7284.12 -79082.5 -0)
(-6899.7 -79747.1 -0)
(-6472.1 -80375.6 -0)
(-296.849 -59632.8 -0)
(-841.795 -59655 -0)
(-1312.55 -59706.7 -0)
(-1745.36 -59789.5 -0)
(-2159.59 -59903.5 -0)
(-2564.77 -60048.3 -0)
(-2965.24 -60223.5 -0)
(-3362.8 -60429.1 -0)
(-3757.96 -60665.2 -0)
(-4150.61 -60931.8 -0)
(-4540.32 -61229.4 -0)
(-4926.44 -61558.2 -0)
(-5308.15 -61918.6 -0)
(-5684.53 -62311 -0)
(-6054.47 -62735.6 -0)
(-6416.75 -63192.6 -0)
(-6769.96 -63682.2 -0)
(-7112.48 -64204.5 -0)
(-7442.53 -64759.3 -0)
(-7758.1 -65346.4 -0)
(-8057 -65965.2 -0)
(-8336.83 -66615.2 -0)
(-8595.05 -67295.3 -0)
(-8828.97 -68004.2 -0)
(-9036.14 -68740.3 -0)
(-9213.75 -69501.5 -0)
(-9358.1 -70284.9 -0)
(-9465.4 -71087.3 -0)
(-9532.16 -71905.2 -0)
(-9555.38 -72734.5 -0)
(-9532.59 -73571 -0)
(-9461.76 -74409.7 -0)
(-9341.51 -75245.8 -0)
(-9171.07 -76074.2 -0)
(-8950.21 -76889.5 -0)
(-8679.04 -77686.7 -0)
(-8357.95 -78460.6 -0)
(-7987.47 -79206.3 -0)
(-7568.3 -79918.6 -0)
(-7101.34 -80592.8 -0)
(-307.839 -58860.9 -0)
(-878.474 -58882.7 -0)
(-1379.69 -58933.9 -0)
(-1844.08 -59016.9 -0)
(-2289.8 -59131.9 -0)
(-2726.16 -59278.8 -0)
(-3157.62 -59457.2 -0)
(-3586.15 -59667.1 -0)
(-4012.44 -59908.6 -0)
(-4436.49 -60181.9 -0)
(-4857.93 -60487.4 -0)
(-5276.14 -60825.4 -0)
(-5690.34 -61196.4 -0)
(-6099.55 -61600.8 -0)
(-6502.63 -62038.9 -0)
(-6898.29 -62511.2 -0)
(-7285.03 -63017.8 -0)
(-7661.11 -63559 -0)
(-8024.59 -64134.7 -0)
(-8373.29 -64744.9 -0)
(-8704.78 -65389.2 -0)
(-9016.44 -66067.1 -0)
(-9305.4 -66777.7 -0)
(-9568.66 -67519.8 -0)
(-9803.27 -68292 -0)
(-10005.8 -69091.9 -0)
(-10172 -69916.8 -0)
(-10297.7 -70763.4 -0)
(-10379.1 -71628.2 -0)
(-10412.7 -72506.9 -0)
(-10395.5 -73394.9 -0)
(-10325.2 -74287.1 -0)
(-10200.3 -75178.3 -0)
(-10019.8 -76062.8 -0)
(-9783.43 -76934.9 -0)
(-9491.39 -77789 -0)
(-9144.08 -78619.4 -0)
(-8742.1 -79420.4 -0)
(-8286.2 -80186.3 -0)
(-7777.33 -80911.7 -0)
(-318.671 -58124 -0)
(-914.851 -58145.6 -0)
(-1446.77 -58196.6 -0)
(-1943.39 -58279.8 -0)
(-2421.49 -58395.8 -0)
(-2890.04 -58544.5 -0)
(-3353.56 -58725.7 -0)
(-3814.19 -58939.5 -0)
(-4272.76 -59186 -0)
(-4729.39 -59465.4 -0)
(-5183.81 -59778.2 -0)
(-5635.44 -60124.7 -0)
(-6083.51 -60505.6 -0)
(-6527.04 -60921.3 -0)
(-6964.87 -61372.2 -0)
(-7395.64 -61859 -0)
(-7817.76 -62381.9 -0)
(-8229.4 -62941.3 -0)
(-8628.47 -63537.4 -0)
(-9012.61 -64170.2 -0)
(-9379.18 -64839.6 -0)
(-9725.28 -65545.3 -0)
(-10047.7 -66286.5 -0)
(-10343.3 -67062.2 -0)
(-10608.3 -67871.1 -0)
(-10838.6 -68710.9 -0)
(-11029.6 -69578.8 -0)
(-11176.8 -70471.8 -0)
(-11275.6 -71386.1 -0)
(-11322.1 -72317.4 -0)
(-11312.9 -73260.9 -0)
(-11245.2 -74211.2 -0)
(-11117.2 -75162.6 -0)
(-10927.7 -76109 -0)
(-10676.4 -77044.1 -0)
(-10363.5 -77961.7 -0)
(-9989.28 -78855.4 -0)
(-9554.4 -79718.8 -0)
(-9059.65 -80545.4 -0)
(-8506.03 -81328.7 -0)
(-329.439 -57413.7 -0)
(-951.099 -57435.3 -0)
(-1513.91 -57486.2 -0)
(-2043.25 -57569.6 -0)
(-2554.46 -57686.4 -0)
(-3056.09 -57836.6 -0)
(-3552.66 -58020.3 -0)
(-4046.41 -58237.5 -0)
(-4538.33 -58488.3 -0)
(-5028.68 -58773.1 -0)
(-5517.26 -59092.4 -0)
(-6003.56 -59446.7 -0)
(-6486.86 -59836.6 -0)
(-6966.18 -60262.6 -0)
(-7440.34 -60725.5 -0)
(-7907.95 -61225.7 -0)
(-8367.35 -61764 -0)
(-8816.61 -62340.7 -0)
(-9253.52 -62956.3 -0)
(-9675.54 -63611.1 -0)
(-10079.8 -64305.1 -0)
(-10463.3 -65038.1 -0)
(-10822.3 -65809.8 -0)
(-11153.3 -66619.4 -0)
(-11451.9 -67465.6 -0)
(-11713.5 -68346.3 -0)
(-11932.9 -69259 -0)
(-12105 -70200.5 -0)
(-12224.7 -71167.3 -0)
(-12287.5 -72154.9 -0)
(-12289.3 -73158.3 -0)
(-12226.9 -74171.8 -0)
(-12098 -75189.3 -0)
(-11901.3 -76204.2 -0)
(-11636.2 -77209.7 -0)
(-11302.7 -78198.8 -0)
(-10901.1 -79164.1 -0)
(-10432 -80098.3 -0)
(-9896.12 -80993.8 -0)
(-9294.56 -81843.2 -0)
(-340.219 -56722.8 -0)
(-987.349 -56744.5 -0)
(-1581.13 -56795.4 -0)
(-2143.55 -56879 -0)
(-2688.47 -56996.4 -0)
(-3223.93 -57147.8 -0)
(-3754.39 -57333.4 -0)
(-4282.18 -57553.3 -0)
(-4808.44 -57807.8 -0)
(-5333.54 -58097.2 -0)
(-5857.39 -58422.1 -0)
(-6379.57 -58783.1 -0)
(-6899.4 -59180.9 -0)
(-7415.93 -59616.2 -0)
(-7928 -60089.8 -0)
(-8434.17 -60602.5 -0)
(-8932.76 -61154.9 -0)
(-9421.76 -61747.9 -0)
(-9898.84 -62382 -0)
(-10361.3 -63057.7 -0)
(-10806.2 -63775.4 -0)
(-11230 -64535.3 -0)
(-11629.1 -65337.2 -0)
(-11999 -66180.7 -0)
(-12335.1 -67064.6 -0)
(-12631.9 -67987.2 -0)
(-12883.9 -68946.2 -0)
(-13085.1 -69938.7 -0)
(-13230 -70961 -0)
(-13313.1 -72008.9 -0)
(-13329.7 -73077.1 -0)
(-13276.2 -74159.7 -0)
(-13149.6 -75250.1 -0)
(-12948.2 -76341.4 -0)
(-12671 -77426 -0)
(-12317.9 -78495.8 -0)
(-11888.7 -79542.6 -0)
(-11384.1 -80557.8 -0)
(-10804.6 -81532.4 -0)
(-10151.4 -82457.5 -0)
(-351.066 -56045 -0)
(-1023.69 -56066.8 -0)
(-1648.45 -56117.8 -0)
(-2244.16 -56201.5 -0)
(-2823.22 -56319.2 -0)
(-3393.11 -56471.4 -0)
(-3958.16 -56658.4 -0)
(-4520.8 -56880.3 -0)
(-5082.26 -57137.6 -0)
(-5643.05 -57430.7 -0)
(-6203.2 -57760.3 -0)
(-6762.37 -58126.9 -0)
(-7319.96 -58531.4 -0)
(-7875.08 -58974.7 -0)
(-8426.58 -59457.7 -0)
(-8973.04 -59981.3 -0)
(-9512.74 -60546.6 -0)
(-10043.6 -61154.3 -0)
(-10563.3 -61805.6 -0)
(-11069 -62501.1 -0)
(-11557.5 -63241.5 -0)
(-12025.1 -64027.4 -0)
(-12467.7 -64859 -0)
(-12880.7 -65736.1 -0)
(-13258.4 -66658 -0)
(-13595.1 -67623.3 -0)
(-13884.4 -68630.1 -0)
(-14119.9 -69675.9 -0)
(-14295 -70757.1 -0)
(-14403.5 -71869.5 -0)
(-14440 -73008 -0)
(-14399.9 -74166.3 -0)
(-14279.8 -75337.6 -0)
(-14077.1 -76514.4 -0)
(-13790.6 -77688.2 -0)
(-13419.4 -78850.1 -0)
(-12963.1 -79990.3 -0)
(-12421.7 -81098.7 -0)
(-11795.9 -82164.6 -0)
(-11086.8 -83177.2 -0)
(-362.015 -55374.9 -0)
(-1060.17 -55396.9 -0)
(-1715.81 -55448 -0)
(-2344.9 -55531.6 -0)
(-2958.36 -55649.3 -0)
(-3563.11 -55801.9 -0)
(-4163.32 -55989.6 -0)
(-4761.45 -56212.9 -0)
(-5358.85 -56472.1 -0)
(-5956.16 -56767.8 -0)
(-6553.52 -57100.8 -0)
(-7150.72 -57471.7 -0)
(-7747.22 -57881.6 -0)
(-8342.22 -58331.4 -0)
(-8934.62 -58822.3 -0)
(-9523.05 -59355.3 -0)
(-10105.8 -59931.7 -0)
(-10680.8 -60552.7 -0)
(-11245.6 -61219.5 -0)
(-11797.3 -61933.3 -0)
(-12332.5 -62695 -0)
(-12847.5 -63505.8 -0)
(-13337.8 -64366.1 -0)
(-13798 -65276.3 -0)
(-14222.3 -66236.1 -0)
(-14604.1 -67244.7 -0)
(-14936.5 -68300.8 -0)
(-15212.1 -69402.1 -0)
(-15423.6 -70545.5 -0)
(-15563.9 -71727.1 -0)
(-15626.5 -72941.7 -0)
(-15605.9 -74183.2 -0)
(-15497.7 -75444.5 -0)
(-15298.7 -76717.4 -0)
(-15006.7 -77992.6 -0)
(-14620 -79260 -0)
(-14137.4 -80508.1 -0)
(-13558.3 -81724.7 -0)
(-12883.1 -82896.7 -0)
(-12113 -84011 -0)
(-373.083 -54707.8 -0)
(-1096.79 -54730 -0)
(-1783.15 -54781.1 -0)
(-2445.53 -54864.5 -0)
(-3093.5 -54982 -0)
(-3733.37 -55134.4 -0)
(-4369.14 -55322.2 -0)
(-5003.27 -55545.9 -0)
(-5637.21 -55806 -0)
(-6271.72 -56103.3 -0)
(-6907.09 -56438.4 -0)
(-7543.21 -56812.3 -0)
(-8179.67 -57226 -0)
(-8815.77 -57680.7 -0)
(-9450.48 -58177.7 -0)
(-10082.5 -58718.4 -0)
(-10710.2 -59304.1 -0)
(-11331.4 -59936.5 -0)
(-11943.9 -60616.9 -0)
(-12544.5 -61347.1 -0)
(-13129.9 -62128.5 -0)
(-13696.1 -62962.5 -0)
(-14238.3 -63850.3 -0)
(-14750.6 -64792.6 -0)
(-15226.8 -65789.8 -0)
(-15659.8 -66842 -0)
(-16041.8 -67948.2 -0)
(-16364.6 -69107.1 -0)
(-16620 -70316 -0)
(-16799.7 -71571.5 -0)
(-16896.2 -72868.7 -0)
(-16902.7 -74201.7 -0)
(-16813.9 -75563.2 -0)
(-16625.3 -76944.6 -0)
(-16333.2 -78335.7 -0)
(-15934.9 -79724.9 -0)
(-15427.7 -81098.5 -0)
(-14810.3 -82441.6 -0)
(-14082.2 -83738.2 -0)
(-13245 -84971.7 -0)
(-384.268 -54039.7 -0)
(-1133.52 -54062.2 -0)
(-1850.34 -54113.2 -0)
(-2545.79 -54196.3 -0)
(-3228.2 -54313.1 -0)
(-3903.28 -54464.8 -0)
(-4574.83 -54651.9 -0)
(-5245.3 -54875.2 -0)
(-5916.22 -55135.2 -0)
(-6588.49 -55432.7 -0)
(-7262.51 -55768.6 -0)
(-7938.34 -56143.9 -0)
(-8615.68 -56559.8 -0)
(-9293.97 -57017.7 -0)
(-9972.29 -57518.9 -0)
(-10649.4 -58065.2 -0)
(-11323.9 -58658.2 -0)
(-11993.6 -59299.6 -0)
(-12656.2 -59991.6 -0)
(-13308.8 -60736 -0)
(-13947.9 -61534.8 -0)
(-14569.3 -62390 -0)
(-15167.9 -63303.4 -0)
(-15737.6 -64276.3 -0)
(-16271.7 -65310 -0)
(-16762.5 -66405.3 -0)
(-17201.6 -67562.3 -0)
(-17579.9 -68780.3 -0)
(-17888 -70057.7 -0)
(-18116.6 -71391.8 -0)
(-18256.7 -72778.3 -0)
(-18300.4 -74211.9 -0)
(-18240.6 -75685.3 -0)
(-18071.3 -77189.7 -0)
(-17787 -78713.9 -0)
(-17382.7 -80244.5 -0)
(-16854.1 -81765.4 -0)
(-16198 -83258 -0)
(-15413.1 -84702 -0)
(-14501.2 -86076.6 -0)
(-395.556 -53367.4 -0)
(-1170.29 -53390.1 -0)
(-1917.21 -53440.9 -0)
(-2645.39 -53523.3 -0)
(-3362 -53639.1 -0)
(-4072.2 -53789.5 -0)
(-4779.58 -53975.3 -0)
(-5486.54 -54197.2 -0)
(-6194.72 -54455.9 -0)
(-6905.11 -54752.4 -0)
(-7618.29 -55087.6 -0)
(-8334.45 -55462.7 -0)
(-9053.45 -55879.1 -0)
(-9774.88 -56338.1 -0)
(-10498 -56841.5 -0)
(-11221.7 -57391.1 -0)
(-11944.6 -57988.9 -0)
(-12664.9 -58637.1 -0)
(-13380.2 -59337.9 -0)
(-14087.7 -60093.9 -0)
(-14784 -60907.6 -0)
(-15464.7 -61781.4 -0)
(-16124.5 -62717.8 -0)
(-16757.3 -63719.1 -0)
(-17355.8 -64787.5 -0)
(-17912 -65924.8 -0)
(-18416.8 -67132.2 -0)
(-18860.1 -68410.4 -0)
(-19231.5 -69758.7 -0)
(-19520.3 -71175.8 -0)
(-19716.2 -72658.5 -0)
(-19809.7 -74202.3 -0)
(-19791.7 -75800.7 -0)
(-19653.9 -77444.8 -0)
(-19388.1 -79122.7 -0)
(-18986.3 -80818.9 -0)
(-18441.2 -82514 -0)
(-17746.9 -84184.9 -0)
(-16900.8 -85805.4 -0)
(-15904.6 -87348.5 -0)
(-406.915 -52688 -0)
(-1207.02 -52710.7 -0)
(-1983.57 -52761.3 -0)
(-2743.98 -52842.7 -0)
(-3494.4 -52957.1 -0)
(-4239.45 -53105.6 -0)
(-4982.5 -53289.2 -0)
(-5725.95 -53508.7 -0)
(-6471.46 -53765.1 -0)
(-7220.19 -54059.2 -0)
(-7972.84 -54392.2 -0)
(-8729.78 -54765.4 -0)
(-9491.05 -55180.2 -0)
(-10256.4 -55638.4 -0)
(-11025.3 -56141.7 -0)
(-11796.9 -56692.2 -0)
(-12569.8 -57292.2 -0)
(-13342.6 -57944.2 -0)
(-14113 -58651 -0)
(-14878.4 -59415.5 -0)
(-15635.4 -60240.8 -0)
(-16379.5 -61129.9 -0)
(-17105.6 -62086.1 -0)
(-17807.3 -63112.7 -0)
(-18477.4 -64213.1 -0)
(-19107.2 -65390.2 -0)
(-19687.2 -66646.8 -0)
(-20206.4 -67984.9 -0)
(-20653.5 -69405.8 -0)
(-21016.3 -70909.5 -0)
(-21283.2 -72495 -0)
(-21442.6 -74159.2 -0)
(-21483.1 -75896.9 -0)
(-21393.2 -77699.9 -0)
(-21161.1 -79555.9 -0)
(-20774.1 -81447.3 -0)
(-20220.1 -83350.5 -0)
(-19489.4 -85236.3 -0)
(-18576.8 -87070.7 -0)
(-17484.2 -88817.9 -0)
(-418.305 -51999.2 -0)
(-1243.56 -52021.9 -0)
(-2049.19 -52071.9 -0)
(-2841.21 -52152.2 -0)
(-3624.86 -52264.6 -0)
(-4404.32 -52410.6 -0)
(-5182.71 -52591.2 -0)
(-5962.42 -52807.4 -0)
(-6745.17 -53060.1 -0)
(-7532.24 -53350.5 -0)
(-8324.49 -53679.7 -0)
(-9122.47 -54049.2 -0)
(-9926.43 -54460.5 -0)
(-10736.3 -54915.5 -0)
(-11551.8 -55416.3 -0)
(-12372.3 -55965.1 -0)
(-13196.7 -56564.4 -0)
(-14023.7 -57217.2 -0)
(-14851.5 -57926.6 -0)
(-15677.5 -58696 -0)
(-16498.4 -59528.9 -0)
(-17310 -60429.2 -0)
(-18107.4 -61401.1 -0)
(-18884.3 -62449 -0)
(-19633.3 -63577.4 -0)
(-20345.8 -64790.9 -0)
(-21011.5 -66093.9 -0)
(-21619.1 -67490.3 -0)
(-22156.1 -68983.7 -0)
(-22609.5 -70576.6 -0)
(-22965.9 -72270.5 -0)
(-23211.6 -74065.1 -0)
(-23332.5 -75957.5 -0)
(-23312.9 -77941.3 -0)
(-23135.4 -80004.2 -0)
(-22781 -82126.9 -0)
(-22230.3 -84281.1 -0)
(-21467.1 -86429.3 -0)
(-20482.4 -88526.5 -0)
(-19277.5 -90524.2 -0)
(-429.672 -51299 -0)
(-1279.77 -51321.7 -0)
(-2113.82 -51370.9 -0)
(-2936.67 -51449.6 -0)
(-3752.85 -51559.7 -0)
(-4566.07 -51702.6 -0)
(-5379.29 -51879.4 -0)
(-6194.85 -52091.2 -0)
(-7014.55 -52339.1 -0)
(-7839.76 -52624.2 -0)
(-8671.53 -52948 -0)
(-9510.6 -53311.9 -0)
(-10357.4 -53717.7 -0)
(-11212.2 -54167.3 -0)
(-12074.8 -54662.9 -0)
(-12945 -55207.1 -0)
(-13822 -55802.6 -0)
(-14704.8 -56452.7 -0)
(-15591.8 -57160.9 -0)
(-16480.7 -57930.9 -0)
(-17368.6 -58766.9 -0)
(-18251.7 -59673.6 -0)
(-19125.3 -60656.1 -0)
(-19983.6 -61719.9 -0)
(-20819.3 -62871.1 -0)
(-21623.7 -64115.8 -0)
(-22386.6 -65460.4 -0)
(-23096.3 -66911.5 -0)
(-23739.8 -68475.4 -0)
(-24303.2 -70157.9 -0)
(-24771.7 -71964.3 -0)
(-25129.6 -73898.3 -0)
(-25359.2 -75961 -0)
(-25439.9 -78149.4 -0)
(-25346.7 -80453.1 -0)
(-25051 -82851.5 -0)
(-24522.4 -85311 -0)
(-23734.7 -87783.6 -0)
(-22671.8 -90208.9 -0)
(-21334.2 -92520.1 -0)
(-440.955 -50586.1 -0)
(-1315.48 -50608.5 -0)
(-2177.16 -50656.8 -0)
(-3029.97 -50733.6 -0)
(-3877.79 -50840.8 -0)
(-4723.97 -50979.9 -0)
(-5571.32 -51152 -0)
(-6422.12 -51358.5 -0)
(-7278.25 -51600.3 -0)
(-8141.21 -51878.9 -0)
(-9012.2 -52195.6 -0)
(-9892.15 -52552.1 -0)
(-10781.8 -52950.1 -0)
(-11681.5 -53391.9 -0)
(-12591.6 -53879.7 -0)
(-13512 -54416.2 -0)
(-14442.3 -55004.6 -0)
(-15382 -55648.2 -0)
(-16329.7 -56350.8 -0)
(-17283.5 -57116.7 -0)
(-18241.1 -57950.5 -0)
(-19199.2 -58857.8 -0)
(-20153.7 -59844.6 -0)
(-21099.2 -60917.7 -0)
(-22029.1 -62084.6 -0)
(-22935.1 -63353.4 -0)
(-23807.2 -64732.8 -0)
(-24634 -66232.2 -0)
(-25402.5 -67861.5 -0)
(-26098.4 -69630.9 -0)
(-26706.2 -71550.9 -0)
(-27208.4 -73630.9 -0)
(-27583.6 -75878.5 -0)
(-27804.9 -78296.7 -0)
(-27837.5 -80879.6 -0)
(-27638.9 -83607.5 -0)
(-27162.4 -86441.6 -0)
(-26365 -89321 -0)
(-25218.9 -92163.6 -0)
(-23719.8 -94874 -0)
(-452.087 -49859.2 -0)
(-1350.5 -49881.3 -0)
(-2238.93 -49928.4 -0)
(-3120.68 -50002.9 -0)
(-3999.11 -50106.8 -0)
(-4877.29 -50241.4 -0)
(-5757.87 -50408.1 -0)
(-6643.12 -50608.1 -0)
(-7534.97 -50842.7 -0)
(-8435.04 -51113.3 -0)
(-9344.71 -51421.3 -0)
(-10265.1 -51768.4 -0)
(-11197.2 -52156.7 -0)
(-12141.7 -52588.1 -0)
(-13099.2 -53065.3 -0)
(-14069.9 -53591.1 -0)
(-15054 -54168.7 -0)
(-16051 -54801.6 -0)
(-17060.3 -55493.9 -0)
(-18080.4 -56250.2 -0)
(-19109.8 -57075.9 -0)
(-20145.9 -57977.1 -0)
(-21185.3 -58960.8 -0)
(-22223.6 -60035.1 -0)
(-23254.9 -61208.8 -0)
(-24271.8 -62492.2 -0)
(-25265.4 -63896.5 -0)
(-26225 -65434.5 -0)
(-27138.6 -67120.3 -0)
(-27992.6 -68969.7 -0)
(-28771.6 -70999.5 -0)
(-29457.3 -73227.8 -0)
(-30025.1 -75671.7 -0)
(-30441 -78344.1 -0)
(-30657.5 -81248.1 -0)
(-30613 -84369.3 -0)
(-30236 -87666.1 -0)
(-29456.7 -91062.6 -0)
(-28224.8 -94447 -0)
(-26524 -97676.2 -0)
(-462.995 -49117.7 -0)
(-1384.62 -49139.2 -0)
(-2298.81 -49184.8 -0)
(-3208.36 -49256.7 -0)
(-4116.25 -49356.7 -0)
(-5025.3 -49486.3 -0)
(-5938.06 -49646.8 -0)
(-6856.76 -49839.4 -0)
(-7783.42 -50065.7 -0)
(-8719.77 -50326.8 -0)
(-9667.35 -50624.5 -0)
(-10627.5 -50960.5 -0)
(-11601.4 -51336.8 -0)
(-12590.2 -51755.5 -0)
(-13594.6 -52219.3 -0)