/*--------------------------------*- C++ -*----------------------------------*\
  =========                 |
  \\      /  F ield         | OpenFOAM: The Open Source CFD Toolbox
   \\    /   O peration     | Website:  https://openfoam.org
    \\  /    A nd           | Version:  6
     \\/     M anipulation  |
\*---------------------------------------------------------------------------*/
FoamFile
{
    version     2.0;
    format      ascii;
    class       volVectorField;
    location    "20";
    object      force;
}
// * * * * * * * * * * * * * * * * * * * * * * * * * * * * * * * * * * * * * //

dimensions      [0 1 -2 0 0 0 0];

internalField   nonuniform List<vector> 
8800
(
(-8.07203e-06 -0.0607292 -0)
(-2.06374e-05 -0.0610294 -0)
(-2.87315e-05 -0.0611995 -0)
(-3.57798e-05 -0.0613337 -0)
(-4.25731e-05 -0.0614574 -0)
(-4.93395e-05 -0.0615912 -0)
(-5.60532e-05 -0.0617408 -0)
(-6.2669e-05 -0.0619076 -0)
(-6.91474e-05 -0.0620917 -0)
(-7.54561e-05 -0.0622923 -0)
(-8.15687e-05 -0.0625088 -0)
(-8.74627e-05 -0.0627402 -0)
(-9.31186e-05 -0.0629854 -0)
(-9.85186e-05 -0.0632437 -0)
(-0.000103646 -0.063514 -0)
(-0.000108486 -0.0637952 -0)
(-0.000113022 -0.0640866 -0)
(-0.000117239 -0.0643871 -0)
(-0.000121119 -0.0646958 -0)
(-0.000124646 -0.0650118 -0)
(-0.000127801 -0.0653342 -0)
(-0.000130563 -0.0656619 -0)
(-0.00013291 -0.065994 -0)
(-0.000134819 -0.0663294 -0)
(-0.000136267 -0.0666671 -0)
(-0.00013723 -0.0670057 -0)
(-0.000137689 -0.067344 -0)
(-0.000137627 -0.0676807 -0)
(-0.000137035 -0.0680145 -0)
(-0.000135908 -0.0683439 -0)
(-0.000134252 -0.0686679 -0)
(-0.000132076 -0.0689854 -0)
(-0.000129392 -0.0692937 -0)
(-0.000126197 -0.0695939 -0)
(-0.000122461 -0.0698857 -0)
(-0.000118157 -0.0701682 -0)
(-0.000113268 -0.0704401 -0)
(-0.000107787 -0.0707002 -0)
(-0.000101717 -0.070947 -0)
(-9.50666e-05 -0.0711791 -0)
(-1.78656e-05 -0.0504337 -0)
(-4.85999e-05 -0.050665 -0)
(-7.17569e-05 -0.0508356 -0)
(-9.14767e-05 -0.0509673 -0)
(-0.000109874 -0.051087 -0)
(-0.000127763 -0.0512113 -0)
(-0.000145351 -0.0513475 -0)
(-0.000162633 -0.051498 -0)
(-0.000179556 -0.0516634 -0)
(-0.000196051 -0.0518434 -0)
(-0.000212057 -0.0520374 -0)
(-0.000227516 -0.0522444 -0)
(-0.000242377 -0.0524636 -0)
(-0.000256591 -0.0526942 -0)
(-0.000270113 -0.0529351 -0)
(-0.000282898 -0.0531856 -0)
(-0.000294902 -0.0534446 -0)
(-0.000306082 -0.0537114 -0)
(-0.00031639 -0.0539851 -0)
(-0.000325778 -0.0542647 -0)
(-0.000334194 -0.0545496 -0)
(-0.000341583 -0.0548388 -0)
(-0.000347885 -0.0551313 -0)
(-0.000353039 -0.0554264 -0)
(-0.000356982 -0.055723 -0)
(-0.000359655 -0.0560201 -0)
(-0.000361001 -0.0563165 -0)
(-0.000360977 -0.056611 -0)
(-0.000359553 -0.0569025 -0)
(-0.000356713 -0.0571896 -0)
(-0.000352466 -0.0574703 -0)
(-0.00034684 -0.0577402 -0)
(-0.000339876 -0.0580011 -0)
(-0.000331527 -0.0582552 -0)
(-0.000321719 -0.0585019 -0)
(-0.0003104 -0.0587403 -0)
(-0.000297537 -0.0589696 -0)
(-0.000283119 -0.0591887 -0)
(-0.000267152 -0.0593964 -0)
(-0.000249665 -0.0595916 -0)
(-2.47664e-05 -0.0416923 -0)
(-6.79963e-05 -0.041992 -0)
(-0.000101446 -0.0421652 -0)
(-0.000130364 -0.0422897 -0)
(-0.000157301 -0.0423983 -0)
(-0.000183355 -0.0425099 -0)
(-0.000208872 -0.0426317 -0)
(-0.000233909 -0.0427661 -0)
(-0.00025842 -0.0429135 -0)
(-0.00028233 -0.0430738 -0)
(-0.000305556 -0.0432462 -0)
(-0.00032802 -0.04343 -0)
(-0.000349647 -0.0436243 -0)
(-0.000370363 -0.0438283 -0)
(-0.0003901 -0.044041 -0)
(-0.00040879 -0.0442615 -0)
(-0.000426365 -0.0444891 -0)
(-0.000442757 -0.0447228 -0)
(-0.000457895 -0.0449618 -0)
(-0.000471703 -0.0452054 -0)
(-0.000484103 -0.0454527 -0)
(-0.00049501 -0.045703 -0)
(-0.000504338 -0.0459556 -0)
(-0.000511995 -0.0462097 -0)
(-0.000517888 -0.0464643 -0)
(-0.000521927 -0.0467187 -0)
(-0.000524029 -0.0469719 -0)
(-0.000524126 -0.0472226 -0)
(-0.000522168 -0.0474696 -0)
(-0.000518128 -0.0477104 -0)
(-0.000512027 -0.047939 -0)
(-0.000503956 -0.0481563 -0)
(-0.000493928 -0.0483692 -0)
(-0.000481811 -0.048576 -0)
(-0.000467537 -0.0487763 -0)
(-0.000451048 -0.0489697 -0)
(-0.000432311 -0.0491557 -0)
(-0.000411311 -0.0493333 -0)
(-0.000388064 -0.0495017 -0)
(-0.000362617 -0.0496599 -0)
(-2.95216e-05 -0.0343528 -0)
(-8.12129e-05 -0.0347576 -0)
(-0.000121237 -0.0349544 -0)
(-0.000156112 -0.0350741 -0)
(-0.000188744 -0.0351711 -0)
(-0.000220324 -0.0352689 -0)
(-0.000251244 -0.0353756 -0)
(-0.000281581 -0.0354936 -0)
(-0.000311295 -0.0356234 -0)
(-0.000340306 -0.0357643 -0)
(-0.000368521 -0.0359158 -0)
(-0.000395846 -0.0360769 -0)
(-0.000422187 -0.0362469 -0)
(-0.000447454 -0.0364248 -0)
(-0.00047156 -0.0366096 -0)
(-0.000494416 -0.0368006 -0)
(-0.000515935 -0.0369967 -0)
(-0.000536029 -0.0371973 -0)
(-0.000554605 -0.0374016 -0)
(-0.000571567 -0.0376087 -0)
(-0.000586814 -0.037818 -0)
(-0.000600242 -0.038029 -0)
(-0.000611741 -0.0382408 -0)
(-0.000621196 -0.0384529 -0)
(-0.000628494 -0.0386647 -0)
(-0.000633521 -0.0388754 -0)
(-0.000636172 -0.0390839 -0)
(-0.00063636 -0.0392891 -0)
(-0.000634017 -0.0394884 -0)
(-0.000629117 -0.039677 -0)
(-0.00062169 -0.0398469 -0)
(-0.000612011 -0.040017 -0)
(-0.000599832 -0.0401824 -0)
(-0.000585066 -0.0403428 -0)
(-0.000567652 -0.0404981 -0)
(-0.000547536 -0.0406481 -0)
(-0.000524689 -0.0407925 -0)
(-0.000499102 -0.0409305 -0)
(-0.000470801 -0.0410615 -0)
(-0.000439844 -0.0411846 -0)
(-3.23756e-05 -0.0282401 -0)
(-8.9337e-05 -0.0287501 -0)
(-0.000133308 -0.0289786 -0)
(-0.000171687 -0.0291002 -0)
(-0.000207705 -0.0291886 -0)
(-0.000242628 -0.0292738 -0)
(-0.000276864 -0.0293659 -0)
(-0.000310491 -0.029468 -0)
(-0.000343462 -0.0295802 -0)
(-0.000375691 -0.0297021 -0)
(-0.000407072 -0.0298329 -0)
(-0.000437501 -0.0299717 -0)
(-0.00046687 -0.0301176 -0)
(-0.000495075 -0.0302695 -0)
(-0.000522011 -0.0304266 -0)
(-0.000547575 -0.030588 -0)
(-0.000571663 -0.0307527 -0)
(-0.000594169 -0.0309201 -0)
(-0.000614983 -0.0310894 -0)
(-0.000633994 -0.03126 -0)
(-0.000651084 -0.0314312 -0)
(-0.000666133 -0.0316026 -0)
(-0.000679014 -0.0317736 -0)
(-0.0006896 -0.0319437 -0)
(-0.00069776 -0.0321125 -0)
(-0.000703364 -0.0322792 -0)
(-0.000706291 -0.0324426 -0)
(-0.000706429 -0.0326006 -0)
(-0.00070369 -0.0327483 -0)
(-0.000698024 -0.0328754 -0)
(-0.000689906 -0.0330026 -0)
(-0.0006791 -0.0331274 -0)
(-0.000665467 -0.0332485 -0)
(-0.000648934 -0.0333659 -0)
(-0.000629449 -0.0334799 -0)
(-0.000606969 -0.0335904 -0)
(-0.000581473 -0.0336971 -0)
(-0.00055296 -0.0337995 -0)
(-0.000521462 -0.0338971 -0)
(-0.000487049 -0.033989 -0)
(-3.36224e-05 -0.0231686 -0)
(-9.3306e-05 -0.0237799 -0)
(-0.000139311 -0.0240424 -0)
(-0.000179425 -0.0241694 -0)
(-0.000217106 -0.0242519 -0)
(-0.000253697 -0.0243261 -0)
(-0.000289621 -0.0244046 -0)
(-0.000324955 -0.0244911 -0)
(-0.000359645 -0.0245862 -0)
(-0.000393595 -0.0246894 -0)
(-0.000426692 -0.0247998 -0)
(-0.000458817 -0.0249165 -0)
(-0.000489854 -0.0250385 -0)
(-0.000519684 -0.0251647 -0)
(-0.00054819 -0.0252943 -0)
(-0.000575257 -0.0254264 -0)
(-0.000600764 -0.0255601 -0)
(-0.000624594 -0.0256947 -0)
(-0.000646624 -0.0258296 -0)
(-0.00066673 -0.0259643 -0)
(-0.000684783 -0.0260982 -0)
(-0.000700651 -0.0262309 -0)
(-0.000714201 -0.0263622 -0)
(-0.000725294 -0.0264915 -0)
(-0.000733792 -0.0266186 -0)
(-0.000739553 -0.0267424 -0)
(-0.000742438 -0.0268612 -0)
(-0.000742312 -0.0269714 -0)
(-0.000739065 -0.027065 -0)
(-0.000732948 -0.0271467 -0)
(-0.000724293 -0.0272329 -0)
(-0.000712732 -0.0273173 -0)
(-0.000698173 -0.0273993 -0)
(-0.000680562 -0.0274793 -0)
(-0.00065986 -0.0275574 -0)
(-0.000636039 -0.0276339 -0)
(-0.000609086 -0.0277085 -0)
(-0.000579009 -0.0277808 -0)
(-0.000545846 -0.0278503 -0)
(-0.000509668 -0.0279163 -0)
(-3.35513e-05 -0.0189708 -0)
(-9.39492e-05 -0.0196754 -0)
(-0.000140608 -0.019971 -0)
(-0.000181216 -0.020105 -0)
(-0.000219337 -0.0201832 -0)
(-0.000256371 -0.0202478 -0)
(-0.00029277 -0.0203137 -0)
(-0.000328614 -0.0203855 -0)
(-0.000363846 -0.0204641 -0)
(-0.000398364 -0.020549 -0)
(-0.000432045 -0.0206395 -0)
(-0.000464762 -0.0207346 -0)
(-0.000496388 -0.0208332 -0)
(-0.000526796 -0.0209344 -0)
(-0.000555857 -0.0210373 -0)
(-0.000583443 -0.0211409 -0)
(-0.000609426 -0.0212447 -0)
(-0.000633677 -0.0213478 -0)
(-0.000656065 -0.0214499 -0)
(-0.000676456 -0.0215504 -0)
(-0.000694717 -0.021649 -0)
(-0.000710712 -0.0217453 -0)
(-0.0007243 -0.0218393 -0)
(-0.000735343 -0.0219304 -0)
(-0.000743697 -0.0220183 -0)
(-0.000749212 -0.0221018 -0)
(-0.000751735 -0.0221784 -0)
(-0.000751111 -0.0222431 -0)
(-0.000747195 -0.0222869 -0)
(-0.000740882 -0.0223367 -0)
(-0.000731798 -0.0223879 -0)
(-0.000719749 -0.0224383 -0)
(-0.000704668 -0.0224878 -0)
(-0.000686523 -0.0225368 -0)
(-0.000665288 -0.0225857 -0)
(-0.00064095 -0.0226347 -0)
(-0.000613506 -0.0226836 -0)
(-0.000582969 -0.0227322 -0)
(-0.000549379 -0.0227798 -0)
(-0.000512805 -0.0228257 -0)
(-3.24378e-05 -0.015501 -0)
(-9.19939e-05 -0.0162855 -0)
(-0.000138329 -0.0166115 -0)
(-0.000178585 -0.0167529 -0)
(-0.000216304 -0.0168282 -0)
(-0.000252925 -0.0168844 -0)
(-0.000288929 -0.0169387 -0)
(-0.000324408 -0.0169967 -0)
(-0.000359309 -0.0170596 -0)
(-0.000393526 -0.0171272 -0)
(-0.000426931 -0.0171986 -0)
(-0.000459391 -0.017273 -0)
(-0.00049077 -0.0173494 -0)
(-0.000520932 -0.0174267 -0)
(-0.000549742 -0.0175043 -0)
(-0.000577064 -0.0175813 -0)
(-0.000602761 -0.017657 -0)
(-0.0006267 -0.0177309 -0)
(-0.000648743 -0.0178026 -0)
(-0.000668756 -0.0178718 -0)
(-0.0006866 -0.0179382 -0)
(-0.000702141 -0.0180016 -0)
(-0.00071524 -0.0180619 -0)
(-0.000725759 -0.0181187 -0)
(-0.000733551 -0.0181714 -0)
(-0.000738462 -0.0182184 -0)
(-0.000740315 -0.0182565 -0)
(-0.000738913 -0.0182789 -0)
(-0.000734609 -0.0182921 -0)
(-0.000727994 -0.0183138 -0)
(-0.000718586 -0.0183369 -0)
(-0.000706263 -0.0183603 -0)
(-0.000690989 -0.0183843 -0)
(-0.000672749 -0.0184094 -0)
(-0.000651534 -0.018436 -0)
(-0.000627342 -0.0184642 -0)
(-0.000600181 -0.0184941 -0)
(-0.000570067 -0.0185253 -0)
(-0.000537035 -0.0185572 -0)
(-0.000501144 -0.0185891 -0)
(-3.0545e-05 -0.0126347 -0)
(-8.80818e-05 -0.0134816 -0)
(-0.000133406 -0.0138339 -0)
(-0.000172747 -0.0139827 -0)
(-0.000209504 -0.014056 -0)
(-0.00024513 -0.014105 -0)
(-0.000280134 -0.0141489 -0)
(-0.000314628 -0.0141941 -0)
(-0.000348568 -0.0142425 -0)
(-0.000381847 -0.0142938 -0)
(-0.000414337 -0.0143475 -0)
(-0.000445899 -0.0144026 -0)
(-0.000476394 -0.0144584 -0)
(-0.00050568 -0.0145138 -0)
(-0.000533616 -0.0145682 -0)
(-0.000560062 -0.0146208 -0)
(-0.000584878 -0.0146712 -0)
(-0.000607926 -0.014719 -0)
(-0.000629071 -0.0147637 -0)
(-0.000648178 -0.0148052 -0)
(-0.000665112 -0.0148434 -0)
(-0.000679742 -0.0148782 -0)
(-0.000691934 -0.0149093 -0)
(-0.000701554 -0.0149366 -0)
(-0.000708457 -0.014959 -0)
(-0.00071248 -0.0149748 -0)
(-0.000713432 -0.0149802 -0)
(-0.00071107 -0.0149678 -0)
(-0.000706586 -0.0149631 -0)
(-0.000699661 -0.0149633 -0)
(-0.000690035 -0.0149653 -0)
(-0.000677634 -0.0149687 -0)
(-0.000662448 -0.0149741 -0)
(-0.000644481 -0.0149821 -0)
(-0.000623736 -0.0149928 -0)
(-0.000600223 -0.0150066 -0)
(-0.000573958 -0.0150235 -0)
(-0.000544957 -0.0150433 -0)
(-0.000513243 -0.0150653 -0)
(-0.000478862 -0.0150886 -0)
(-2.81142e-05 -0.0102661 -0)
(-8.2768e-05 -0.0111563 -0)
(-0.000126595 -0.0115299 -0)
(-0.000164648 -0.0116859 -0)
(-0.000200081 -0.0117579 -0)
(-0.000234329 -0.0118009 -0)
(-0.000267927 -0.0118356 -0)
(-0.000301009 -0.0118694 -0)
(-0.000333543 -0.0119046 -0)
(-0.000365429 -0.0119412 -0)
(-0.00039654 -0.0119787 -0)
(-0.000426736 -0.0120165 -0)
(-0.000455874 -0.0120537 -0)
(-0.000483812 -0.0120895 -0)
(-0.000510406 -0.0121233 -0)
(-0.000535514 -0.0121546 -0)
(-0.000558997 -0.012183 -0)
(-0.00058072 -0.0122081 -0)
(-0.000600549 -0.0122297 -0)
(-0.000618356 -0.0122478 -0)
(-0.000634014 -0.0122623 -0)
(-0.000647398 -0.0122732 -0)
(-0.000658384 -0.0122804 -0)
(-0.000666841 -0.0122834 -0)
(-0.00067263 -0.0122812 -0)
(-0.000675592 -0.012272 -0)
(-0.000675562 -0.0122524 -0)
(-0.000672428 -0.0122193 -0)
(-0.000667622 -0.0121998 -0)
(-0.00066045 -0.0121848 -0)
(-0.000650739 -0.0121722 -0)
(-0.000638456 -0.0121622 -0)
(-0.000623614 -0.0121553 -0)
(-0.000606232 -0.012152 -0)
(-0.000586325 -0.0121527 -0)
(-0.00056391 -0.0121575 -0)
(-0.000539011 -0.0121667 -0)
(-0.00051164 -0.01218 -0)
(-0.000481809 -0.0121968 -0)
(-0.000449539 -0.0122161 -0)
(-2.53545e-05 -0.00830745 -0)
(-7.65171e-05 -0.00922153 -0)
(-0.000118496 -0.00961116 -0)
(-0.000155014 -0.00977352 -0)
(-0.000188892 -0.0098452 -0)
(-0.000221517 -0.0098833 -0)
(-0.000253442 -0.00991015 -0)
(-0.000284827 -0.00993399 -0)
(-0.000315653 -0.00995746 -0)
(-0.00034583 -0.00998105 -0)
(-0.000375234 -0.0100044 -0)
(-0.000403729 -0.0100269 -0)
(-0.000431172 -0.0100479 -0)
(-0.00045742 -0.0100668 -0)
(-0.000482333 -0.0100831 -0)
(-0.00050577 -0.0100963 -0)
(-0.000527597 -0.0101061 -0)
(-0.000547684 -0.0101123 -0)
(-0.000565906 -0.010115 -0)
(-0.000582142 -0.0101141 -0)
(-0.000596278 -0.0101097 -0)
(-0.0006082 -0.0101017 -0)
(-0.000617792 -0.01009 -0)
(-0.000624931 -0.0100742 -0)
(-0.000629476 -0.0100531 -0)
(-0.000631241 -0.0100243 -0)
(-0.000629928 -0.00998243 -0)
(-0.000626577 -0.00994387 -0)
(-0.000621471 -0.00991498 -0)
(-0.000614164 -0.00989053 -0)
(-0.000604532 -0.00986923 -0)
(-0.000592571 -0.00985131 -0)
(-0.000578309 -0.00983737 -0)
(-0.000561779 -0.0098279 -0)
(-0.000543 -0.00982314 -0)
(-0.000521997 -0.00982333 -0)
(-0.000498802 -0.00982875 -0)
(-0.000473422 -0.00983928 -0)
(-0.00044586 -0.00985445 -0)
(-0.000416106 -0.00987304 -0)
(-2.24371e-05 -0.00668618 -0)
(-6.97035e-05 -0.00760557 -0)
(-0.000109573 -0.00800579 -0)
(-0.000144387 -0.00817379 -0)
(-0.000176564 -0.0082458 -0)
(-0.000207415 -0.00828022 -0)
(-0.000237501 -0.0083006 -0)
(-0.000267004 -0.00831597 -0)
(-0.000295922 -0.00832948 -0)
(-0.000324177 -0.00834191 -0)
(-0.000351653 -0.00835312 -0)
(-0.000378217 -0.00836268 -0)
(-0.000403731 -0.00837006 -0)
(-0.000428057 -0.00837479 -0)
(-0.000451057 -0.00837648 -0)
(-0.000472599 -0.00837484 -0)
(-0.000492555 -0.00836971 -0)
(-0.000510805 -0.00836102 -0)
(-0.000527235 -0.00834881 -0)
(-0.000541739 -0.0083332 -0)
(-0.000554215 -0.00831429 -0)
(-0.000564563 -0.00829216 -0)
(-0.000572679 -0.00826666 -0)
(-0.00057845 -0.0082373 -0)
(-0.000581736 -0.0082029 -0)
(-0.000582354 -0.00816114 -0)
(-0.00058004 -0.00810775 -0)
(-0.000576448 -0.00806636 -0)
(-0.000571162 -0.00803279 -0)
(-0.000563888 -0.00800392 -0)
(-0.00055453 -0.00797876 -0)
(-0.000543098 -0.00795755 -0)
(-0.000529633 -0.0079408 -0)
(-0.000514171 -0.00792897 -0)
(-0.000496735 -0.00792217 -0)
(-0.000477355 -0.00792065 -0)
(-0.000456073 -0.00792491 -0)
(-0.0004329 -0.00793499 -0)
(-0.000407831 -0.00795063 -0)
(-0.000380823 -0.0079706 -0)
(-1.94944e-05 -0.00534281 -0)
(-6.26193e-05 -0.00625071 -0)
(-0.000100178 -0.00665611 -0)
(-0.000133165 -0.00682881 -0)
(-0.000163549 -0.00690176 -0)
(-0.000192535 -0.00693367 -0)
(-0.000220682 -0.00694897 -0)
(-0.000248189 -0.00695745 -0)
(-0.000275075 -0.00696271 -0)
(-0.000301273 -0.00696587 -0)
(-0.000326677 -0.00696703 -0)
(-0.000351163 -0.00696593 -0)
(-0.000374598 -0.0069622 -0)
(-0.000396852 -0.00695552 -0)
(-0.000417796 -0.00694562 -0)
(-0.000437307 -0.00693236 -0)
(-0.000455267 -0.00691568 -0)
(-0.00047157 -0.00689563 -0)
(-0.000486118 -0.00687236 -0)
(-0.000498819 -0.00684604 -0)
(-0.000509588 -0.00681687 -0)
(-0.000518343 -0.00678495 -0)
(-0.000524994 -0.00675018 -0)
(-0.000529438 -0.00671205 -0)
(-0.00053154 -0.00666943 -0)
(-0.000531136 -0.00662035 -0)
(-0.000528142 -0.00656344 -0)
(-0.00052437 -0.00652185 -0)
(-0.000519082 -0.00648763 -0)
(-0.000512051 -0.00645847 -0)
(-0.000503181 -0.00643335 -0)
(-0.000492486 -0.00641241 -0)
(-0.000480002 -0.00639597 -0)
(-0.000465771 -0.00638439 -0)
(-0.00044981 -0.00637768 -0)
(-0.000432158 -0.00637612 -0)
(-0.000412877 -0.00638048 -0)
(-0.000391986 -0.00639105 -0)
(-0.000369481 -0.00640789 -0)
(-0.000345302 -0.00643002 -0)
(-1.66229e-05 -0.00422872 -0)
(-5.5484e-05 -0.00511056 -0)
(-9.05705e-05 -0.0055159 -0)
(-0.000121632 -0.00569219 -0)
(-0.000150162 -0.00576657 -0)
(-0.000177231 -0.00579707 -0)
(-0.000203383 -0.00580867 -0)
(-0.000228832 -0.00581178 -0)
(-0.000253613 -0.00581048 -0)
(-0.000277675 -0.00580623 -0)
(-0.000300924 -0.00579936 -0)
(-0.000323245 -0.0057898 -0)
(-0.000344517 -0.00577736 -0)
(-0.000364618 -0.00576184 -0)
(-0.00038343 -0.00574312 -0)
(-0.000400844 -0.00572119 -0)
(-0.000416757 -0.00569607 -0)
(-0.000431078 -0.00566792 -0)
(-0.000443726 -0.00563698 -0)
(-0.000454628 -0.0056035 -0)
(-0.00046372 -0.00556773 -0)
(-0.000470937 -0.00552983 -0)
(-0.000476206 -0.00548974 -0)
(-0.000479434 -0.00544699 -0)
(-0.000480477 -0.0054003 -0)
(-0.000478987 -0.00534572 -0)
(-0.000475901 -0.00529369 -0)
(-0.000472118 -0.00525476 -0)
(-0.000467047 -0.0052231 -0)
(-0.000460494 -0.00519684 -0)
(-0.000452335 -0.00517471 -0)
(-0.000442568 -0.00515658 -0)
(-0.000431214 -0.00514251 -0)
(-0.000418304 -0.00513263 -0)
(-0.000403857 -0.00512689 -0)
(-0.000387933 -0.00512578 -0)
(-0.00037062 -0.00513032 -0)
(-0.000351952 -0.00514108 -0)
(-0.000331924 -0.00515824 -0)
(-0.000310538 -0.00518233 -0)
(-1.38887e-05 -0.00330428 -0)
(-4.84561e-05 -0.00414779 -0)
(-8.09368e-05 -0.00454815 -0)
(-0.000109988 -0.00472676 -0)
(-0.000136618 -0.00480292 -0)
(-0.000161742 -0.00483302 -0)
(-0.000185872 -0.00484219 -0)
(-0.000209231 -0.00484138 -0)
(-0.000231873 -0.00483512 -0)
(-0.000253762 -0.0048252 -0)
(-0.000274816 -0.00481219 -0)
(-0.000294933 -0.00479621 -0)
(-0.000314005 -0.00477724 -0)
(-0.000331923 -0.00475523 -0)
(-0.000348583 -0.00473017 -0)
(-0.000363892 -0.00470216 -0)
(-0.000377762 -0.00467132 -0)
(-0.000390122 -0.00463792 -0)
(-0.00040091 -0.00460224 -0)
(-0.000410076 -0.00456461 -0)
(-0.000417575 -0.00452534 -0)
(-0.000423364 -0.00448464 -0)
(-0.000427388 -0.00444251 -0)
(-0.00042957 -0.00439855 -0)
(-0.000429767 -0.00435154 -0)
(-0.000427469 -0.00429623 -0)
(-0.000424551 -0.00425153 -0)
(-0.000420987 -0.00421765 -0)
(-0.000416376 -0.00419097 -0)
(-0.000410535 -0.00416987 -0)
(-0.000403296 -0.00415269 -0)
(-0.000394621 -0.00413898 -0)
(-0.000384496 -0.00412841 -0)
(-0.000372871 -0.00412011 -0)
(-0.000359846 -0.0041148 -0)
(-0.000345569 -0.00411388 -0)
(-0.0003301 -0.00411794 -0)
(-0.000313507 -0.00412795 -0)
(-0.000295804 -0.00414446 -0)
(-0.00027705 -0.00416905 -0)
(-1.13351e-05 -0.00253757 -0)
(-4.16436e-05 -0.00333221 -0)
(-7.14058e-05 -0.00372303 -0)
(-9.83706e-05 -0.00390275 -0)
(-0.000123062 -0.00398084 -0)
(-0.000146224 -0.00401139 -0)
(-0.000168323 -0.00401931 -0)
(-0.000189585 -0.00401593 -0)
(-0.000210079 -0.00400618 -0)
(-0.000229785 -0.00399217 -0)
(-0.000248637 -0.00397472 -0)
(-0.000266546 -0.00395416 -0)
(-0.00028342 -0.0039306 -0)
(-0.000299163 -0.00390413 -0)
(-0.00031369 -0.00387487 -0)
(-0.000326925 -0.00384302 -0)
(-0.000338799 -0.00380879 -0)
(-0.000349261 -0.00377249 -0)
(-0.000358272 -0.0037345 -0)
(-0.000365804 -0.0036952 -0)
(-0.000371834 -0.00365494 -0)
(-0.000376342 -0.003614 -0)
(-0.000379295 -0.00357244 -0)
(-0.000380634 -0.00352996 -0)
(-0.000380241 -0.0034856 -0)
(-0.000377609 -0.00343464 -0)
(-0.000374955 -0.00339737 -0)
(-0.000371854 -0.0033702 -0)
(-0.000367951 -0.00335019 -0)
(-0.00036293 -0.00333459 -0)
(-0.000356743 -0.00332304 -0)
(-0.000349298 -0.00331467 -0)
(-0.00034047 -0.00330812 -0)
(-0.000330145 -0.00330192 -0)
(-0.000318454 -0.00329687 -0)
(-0.000305612 -0.00329477 -0)
(-0.000291719 -0.00329649 -0)
(-0.000276915 -0.00330365 -0)
(-0.000261284 -0.00331768 -0)
(-0.000244896 -0.00334041 -0)
(-8.98146e-06 -0.00190109 -0)
(-3.51351e-05 -0.00264068 -0)
(-6.20709e-05 -0.00301692 -0)
(-8.6862e-05 -0.00319594 -0)
(-0.000109583 -0.00327617 -0)
(-0.000130772 -0.0033079 -0)
(-0.000150842 -0.00331559 -0)
(-0.000170015 -0.00331084 -0)
(-0.000188371 -0.00329892 -0)
(-0.000205907 -0.00328224 -0)
(-0.000222571 -0.00326187 -0)
(-0.000238293 -0.0032383 -0)
(-0.000252995 -0.00321183 -0)
(-0.000266601 -0.00318265 -0)
(-0.000279041 -0.00315098 -0)
(-0.000290263 -0.00311716 -0)
(-0.000300217 -0.00308142 -0)
(-0.000308873 -0.00304415 -0)
(-0.000316217 -0.00300579 -0)
(-0.000322243 -0.00296677 -0)
(-0.000326954 -0.0029275 -0)
(-0.000330352 -0.00288828 -0)
(-0.000332428 -0.00284927 -0)
(-0.000333143 -0.00281029 -0)
(-0.000332047 -0.00276758 -0)
(-0.000329649 -0.00272539 -0)
(-0.000327456 -0.0026962 -0)
(-0.000325059 -0.00267679 -0)
(-0.000322104 -0.00266445 -0)
(-0.000318176 -0.00265593 -0)
(-0.000313235 -0.00265098 -0)
(-0.000307109 -0.00264816 -0)
(-0.000299575 -0.00264542 -0)
(-0.000290487 -0.00264103 -0)
(-0.000279942 -0.00263525 -0)
(-0.00026819 -0.00262977 -0)
(-0.000255464 -0.00262638 -0)
(-0.000242021 -0.00262759 -0)
(-0.000228057 -0.00263589 -0)
(-0.000213688 -0.00265374 -0)
(-6.83259e-06 -0.00137257 -0)
(-2.897e-05 -0.002053 -0)
(-5.30058e-05 -0.00241118 -0)
(-7.55368e-05 -0.00258761 -0)
(-9.62345e-05 -0.00266938 -0)
(-0.00011544 -0.00270278 -0)
(-0.000133493 -0.00271122 -0)
(-0.000150597 -0.00270621 -0)
(-0.000166839 -0.0026933 -0)
(-0.000182228 -0.00267515 -0)
(-0.000196734 -0.0026531 -0)
(-0.000210306 -0.00262788 -0)
(-0.000222883 -0.00259989 -0)
(-0.000234406 -0.00256944 -0)
(-0.000244826 -0.00253685 -0)
(-0.000254096 -0.00250236 -0)
(-0.000262205 -0.00246645 -0)
(-0.000269146 -0.00242959 -0)
(-0.000274927 -0.00239221 -0)
(-0.000279566 -0.00235478 -0)
(-0.00028309 -0.00231775 -0)
(-0.000285525 -0.00228148 -0)
(-0.000286887 -0.00224619 -0)
(-0.000287158 -0.0022118 -0)
(-0.000285622 -0.0021728 -0)
(-0.000283889 -0.00214144 -0)
(-0.000282376 -0.00212081 -0)
(-0.000280899 -0.00210961 -0)
(-0.000279114 -0.00210548 -0)
(-0.000276577 -0.00210528 -0)
(-0.000273062 -0.00210745 -0)
(-0.000268286 -0.00210987 -0)
(-0.000261946 -0.00210997 -0)
(-0.000253851 -0.0021057 -0)
(-0.000244082 -0.00209686 -0)
(-0.00023295 -0.00208515 -0)
(-0.000220852 -0.00207326 -0)
(-0.000208223 -0.00206481 -0)
(-0.000195418 -0.00206355 -0)
(-0.00018265 -0.00207288 -0)
(-4.88321e-06 -0.000933701 -0)
(-2.31671e-05 -0.00155285 -0)
(-4.42503e-05 -0.00189017 -0)
(-6.4438e-05 -0.00206224 -0)
(-8.30598e-05 -0.00214494 -0)
(-0.000100263 -0.00218016 -0)
(-0.000116301 -0.00218993 -0)
(-0.000131354 -0.0021855 -0)
(-0.000145509 -0.00217256 -0)
(-0.000158787 -0.00215398 -0)
(-0.000171174 -0.00213134 -0)
(-0.00018264 -0.00210555 -0)
(-0.000193141 -0.00207713 -0)
(-0.000202639 -0.0020465 -0)
(-0.000211103 -0.00201405 -0)
(-0.000218503 -0.00198004 -0)
(-0.000224856 -0.00194507 -0)
(-0.000230181 -0.00190965 -0)
(-0.000234507 -0.00187424 -0)
(-0.000237878 -0.00183935 -0)
(-0.000240346 -0.00180545 -0)
(-0.000241961 -0.00177295 -0)
(-0.000242763 -0.00174212 -0)
(-0.00024276 -0.001713 -0)
(-0.000241437 -0.00168191 -0)
(-0.000240449 -0.00166035 -0)
(-0.000239857 -0.00164865 -0)
(-0.00023953 -0.00164599 -0)
(-0.000239118 -0.0016502 -0)
(-0.000238116 -0.00165808 -0)
(-0.000236101 -0.00166694 -0)
(-0.000232627 -0.00167369 -0)
(-0.000227279 -0.0016751 -0)
(-0.00021981 -0.00166863 -0)
(-0.000210301 -0.00165376 -0)
(-0.000199165 -0.00163231 -0)
(-0.000187011 -0.0016079 -0)
(-0.000174517 -0.00158545 -0)
(-0.00016226 -0.00157021 -0)
(-0.000150604 -0.00156681 -0)
(-3.12153e-06 -0.000569351 -0)
(-1.77297e-05 -0.00112686 -0)
(-3.58285e-05 -0.00144121 -0)
(-5.3596e-05 -0.00160728 -0)
(-7.00842e-05 -0.00169013 -0)
(-8.52574e-05 -0.00172709 -0)
(-9.92799e-05 -0.00173854 -0)
(-0.000112297 -0.00173529 -0)
(-0.000124392 -0.00172306 -0)
(-0.000135594 -0.0017049 -0)
(-0.000145905 -0.00168253 -0)
(-0.000155311 -0.00165702 -0)
(-0.000163789 -0.00162902 -0)
(-0.000171319 -0.00159904 -0)
(-0.000177895 -0.00156755 -0)
(-0.000183507 -0.0015349 -0)
(-0.000188194 -0.0015017 -0)
(-0.000192 -0.00146848 -0)
(-0.00019498 -0.00143578 -0)
(-0.000197204 -0.0014041 -0)
(-0.000198747 -0.00137396 -0)
(-0.000199686 -0.00134582 -0)
(-0.000200086 -0.00131999 -0)
(-0.000199724 -0.00129494 -0)
(-0.000199228 -0.00127465 -0)
(-0.000199198 -0.00126281 -0)
(-0.000199755 -0.00126012 -0)
(-0.000200787 -0.001266 -0)
(-0.000201914 -0.00127832 -0)
(-0.000202535 -0.00129365 -0)
(-0.000202014 -0.00130822 -0)
(-0.000199694 -0.00131786 -0)
(-0.000195004 -0.00131841 -0)
(-0.000187628 -0.00130679 -0)
(-0.000177678 -0.00128217 -0)
(-0.000165723 -0.00124669 -0)
(-0.000152646 -0.00120499 -0)
(-0.000139448 -0.00116351 -0)
(-0.000127009 -0.00112919 -0)
(-0.000115903 -0.00110818 -0)
(-1.53201e-06 -0.000266995 -0)
(-1.26502e-05 -0.000763925 -0)
(-2.77535e-05 -0.00105386 -0)
(-4.30319e-05 -0.00121245 -0)
(-5.73268e-05 -0.00129459 -0)
(-7.04371e-05 -0.00133303 -0)
(-8.24355e-05 -0.0013463 -0)
(-9.34272e-05 -0.00134464 -0)
(-0.000103485 -0.00133368 -0)
(-0.000112646 -0.00131656 -0)
(-0.000120921 -0.00129512 -0)
(-0.000128314 -0.00127055 -0)
(-0.000134821 -0.00124363 -0)
(-0.000140444 -0.00121495 -0)
(-0.000145195 -0.00118503 -0)
(-0.000149094 -0.00115433 -0)
(-0.000152196 -0.00112344 -0)
(-0.00015457 -0.00109294 -0)
(-0.000156298 -0.00106338 -0)
(-0.000157475 -0.00103531 -0)
(-0.000158202 -0.00100926 -0)
(-0.000158583 -0.000985731 -0)
(-0.000158711 -0.000965114 -0)
(-0.000158392 -0.000946089 -0)
(-0.000158785 -0.000935433 -0)
(-0.000159884 -0.000932895 -0)
(-0.000161788 -0.000939023 -0)
(-0.00016436 -0.00095317 -0)
(-0.000167149 -0.000973072 -0)
(-0.000169418 -0.000994862 -0)
(-0.000170284 -0.00101371 -0)
(-0.000168831 -0.00102418 -0)
(-0.000164287 -0.00102105 -0)
(-0.000156255 -0.0010005 -0)
(-0.000144914 -0.000961549 -0)
(-0.000131064 -0.000906773 -0)
(-0.000115955 -0.000842066 -0)
(-0.000101014 -0.000775599 -0)
(-8.75146e-05 -0.000716255 -0)
(-7.63125e-05 -0.00067197 -0)
(-9.74133e-08 -1.62412e-05 -0)
(-7.91355e-06 -0.000454804 -0)
(-2.00302e-05 -0.000719501 -0)
(-3.27618e-05 -0.000869333 -0)
(-4.48039e-05 -0.000949855 -0)
(-5.58131e-05 -0.00098935 -0)
(-6.57727e-05 -0.00100442 -0)
(-7.47436e-05 -0.00100457 -0)
(-8.27843e-05 -0.000995245 -0)
(-8.99315e-05 -0.000979607 -0)
(-9.6208e-05 -0.000959587 -0)
(-0.000101631 -0.00093646 -0)
(-0.000106216 -0.000911087 -0)
(-0.000109983 -0.000884147 -0)
(-0.000112967 -0.000856229 -0)
(-0.000115212 -0.000827839 -0)
(-0.000116793 -0.000799584 -0)
(-0.000117805 -0.000772062 -0)
(-0.000118352 -0.000745849 -0)
(-0.000118557 -0.000721519 -0)
(-0.000118546 -0.000699626 -0)
(-0.000118449 -0.000680685 -0)
(-0.000118288 -0.000664596 -0)
(-0.000118495 -0.000653562 -0)
(-0.00011981 -0.000651394 -0)
(-0.000122165 -0.000657513 -0)
(-0.000125576 -0.000672004 -0)
(-0.000129829 -0.00069392 -0)
(-0.000134353 -0.000720623 -0)
(-0.000138215 -0.000747587 -0)
(-0.000140234 -0.000768801 -0)
(-0.000139176 -0.000777425 -0)
(-0.000134019 -0.000766939 -0)
(-0.000124278 -0.000732737 -0)
(-0.000110256 -0.000673714 -0)
(-9.30799e-05 -0.000593154 -0)
(-7.45008e-05 -0.000498454 -0)
(-5.65016e-05 -0.000399824 -0)
(-4.08643e-05 -0.000308366 -0)
(-2.88117e-05 -0.000234031 -0)
(1.19976e-06 0.000191532 0)
(-3.50068e-06 -0.00019173 -0)
(-1.26581e-05 -0.00043092 -0)
(-2.27981e-05 -0.000570942 -0)
(-3.25313e-05 -0.000648952 -0)
(-4.13977e-05 -0.00068898 -0)
(-4.92972e-05 -0.000705656 -0)
(-5.62451e-05 -0.000707672 -0)
(-6.22803e-05 -0.00070019 -0)
(-6.7437e-05 -0.000686323 -0)
(-7.17448e-05 -0.000668043 -0)
(-7.52335e-05 -0.00064668 -0)
(-7.79341e-05 -0.000623172 -0)
(-7.9887e-05 -0.000598256 -0)
(-8.11472e-05 -0.000572572 -0)
(-8.17819e-05 -0.000546681 -0)
(-8.18868e-05 -0.000521192 -0)
(-8.1578e-05 -0.000496718 -0)
(-8.09872e-05 -0.000473853 -0)
(-8.02595e-05 -0.000453185 -0)
(-7.95491e-05 -0.000435286 -0)
(-7.90145e-05 -0.000420712 -0)
(-7.8628e-05 -0.000409035 -0)
(-7.96021e-05 -0.000406247 -0)
(-8.1927e-05 -0.000411896 -0)
(-8.56314e-05 -0.000425938 -0)
(-9.06623e-05 -0.00044814 -0)
(-9.66867e-05 -0.000477109 -0)
(-0.000102952 -0.000509592 -0)
(-0.000108248 -0.000540126 -0)
(-0.00011102 -0.00056131 -0)
(-0.000109634 -0.000564666 -0)
(-0.000102768 -0.000542186 -0)
(-8.9849e-05 -0.000488362 -0)
(-7.13749e-05 -0.000402084 -0)
(-4.89514e-05 -0.00028763 -0)
(-2.50009e-05 -0.000154271 -0)
(-2.24111e-06 -1.46317e-05 -0)
(1.68904e-05 0.000117651 0)
(3.07041e-05 0.000230354 0)
(2.37629e-06 0.000363485 0)
(6.0936e-07 3.18409e-05 0)
(-5.63395e-06 -0.000182066 -0)
(-1.3152e-05 -0.000311464 -0)
(-2.05258e-05 -0.000386109 -0)
(-2.72063e-05 -0.000426078 -0)
(-3.30192e-05 -0.000444052 -0)
(-3.7934e-05 -0.000447842 -0)
(-4.19673e-05 -0.000442255 -0)
(-4.51472e-05 -0.000430295 -0)
(-4.75068e-05 -0.000413926 -0)
(-4.90854e-05 -0.000394509 -0)
(-4.99285e-05 -0.000373029 -0)
(-5.00936e-05 -0.00035027 -0)
(-4.96546e-05 -0.000326908 -0)
(-4.87007e-05 -0.000303542 -0)
(-4.73472e-05 -0.00028079 -0)
(-4.57318e-05 -0.000259268 -0)
(-4.40095e-05 -0.000239582 -0)
(-4.235e-05 -0.000222329 -0)
(-4.09325e-05 -0.000208089 -0)
(-3.99014e-05 -0.000197234 -0)
(-3.97562e-05 -0.000191858 -0)
(-4.13727e-05 -0.000195728 -0)
(-4.47226e-05 -0.000208283 -0)
(-4.9824e-05 -0.000229415 -0)
(-5.65359e-05 -0.000258524 -0)
(-6.43618e-05 -0.000293637 -0)
(-7.22873e-05 -0.000330631 -0)
(-7.87204e-05 -0.000362787 -0)
(-8.162e-05 -0.000380988 -0)
(-7.88468e-05 -0.000374802 -0)
(-6.87088e-05 -0.000334482 -0)
(-5.05565e-05 -0.000253522 -0)
(-2.51953e-05 -0.000130944 -0)
(5.09407e-06 2.76168e-05 0)
(3.69724e-05 0.000210547 0)
(6.67493e-05 0.000402341 0)
(9.11391e-05 0.000586439 0)
(0.000107858 0.000748062 0)
(3.44768e-06 0.000505557 0)
(4.43779e-06 0.000221447 0)
(1.0474e-06 3.21778e-05 0)
(-3.8345e-06 -8.60257e-05 -0)
(-8.8068e-06 -0.000156527 -0)
(-1.32589e-05 -0.000195808 -0)
(-1.69542e-05 -0.000214674 -0)
(-1.98184e-05 -0.000220023 -0)
(-2.18442e-05 -0.000216248 -0)
(-2.30502e-05 -0.000206194 -0)
(-2.34699e-05 -0.000191774 -0)
(-2.31491e-05 -0.000174349 -0)
(-2.21453e-05 -0.000154931 -0)
(-2.05304e-05 -0.000134329 -0)
(-1.83952e-05 -0.000113242 -0)
(-1.58484e-05 -9.22977e-05 -0)
(-1.30241e-05 -7.2117e-05 -0)
(-1.008e-05 -5.33174e-05 -0)
(-7.19277e-06 -3.65044e-05 -0)
(-4.55606e-06 -2.22808e-05 -0)
(-2.37521e-06 -1.12391e-05 -0)
(-7.94862e-07 -3.65405e-06 -0)
(-1.09392e-06 -4.90557e-06 -0)
(-3.3656e-06 -1.47835e-05 -0)
(-7.74132e-06 -3.34476e-05 -0)
(-1.42489e-05 -6.082e-05 -0)
(-2.26492e-05 -9.59355e-05 -0)
(-3.22313e-05 -0.000136111 -0)
(-4.16224e-05 -0.000176096 -0)
(-4.87117e-05 -0.000207526 -0)
(-5.08111e-05 -0.000219135 -0)
(-4.51284e-05 -0.00019811 -0)
(-2.95123e-05 -0.000132631 -0)
(-3.25755e-06 -1.50765e-05 -0)