/*--------------------------------*- C++ -*----------------------------------*\
  =========                 |
  \\      /  F ield         | OpenFOAM: The Open Source CFD Toolbox
   \\    /   O peration     | Website:  https://openfoam.org
    \\  /    A nd           | Version:  6
     \\/     M anipulation  |
\*---------------------------------------------------------------------------*/
FoamFile
{
    version     2.0;
    format      ascii;
    class       volScalarField;
    location    "20";
    object      fw;
}
// * * * * * * * * * * * * * * * * * * * * * * * * * * * * * * * * * * * * * //

dimensions      [0 0 0 0 0 0 0];

internalField   nonuniform List<scalar> 
8800
(
4.40746
4.40899
4.41154
4.41491
4.41903
4.42388
4.42944
4.43571
4.44268
4.45032
4.45861
4.46754
4.47708
4.4872
4.49788
4.50909
4.52079
4.53296
4.54555
4.55854
4.57189
4.58555
4.59948
4.61364
4.62799
4.64246
4.65702
4.67161
4.68617
4.70064
4.71497
4.72911
4.74299
4.75658
4.7698
4.7826
4.79492
4.8067
4.81786
4.82835
4.23772
4.23902
4.24134
4.24452
4.24846
4.25312
4.2585
4.26456
4.2713
4.27869
4.28673
4.29539
4.30464
4.31447
4.32484
4.33574
4.34712
4.35896
4.37123
4.38389
4.3969
4.41023
4.42384
4.43767
4.4517
4.46585
4.4801
4.49438
4.50864
4.52283
4.53688
4.55075
4.56439
4.57774
4.59074
4.60334
4.61545
4.62704
4.63802
4.64834
4.08977
4.09107
4.09331
4.09636
4.10015
4.10466
4.10986
4.11574
4.12229
4.12948
4.1373
4.14573
4.15475
4.16433
4.17446
4.1851
4.19623
4.20781
4.21983
4.23223
4.245
4.25808
4.27145
4.28506
4.29885
4.3128
4.32684
4.34092
4.35499
4.369
4.3829
4.39664
4.41016
4.4234
4.43631
4.44882
4.46086
4.47238
4.4833
4.49357
3.96125
3.96256
3.96477
3.96775
3.97144
3.97583
3.98089
3.98662
3.99301
4.00003
4.00768
4.01592
4.02476
4.03415
4.04409
4.05455
4.06549
4.0769
4.08874
4.10098
4.11358
4.12652
4.13975
4.15323
4.16691
4.18075
4.19471
4.20872
4.22273
4.2367
4.25058
4.26433
4.27787
4.29115
4.30411
4.31667
4.32877
4.34035
4.35134
4.36168
3.84975
3.85106
3.85326
3.85619
3.85982
3.86412
3.86908
3.8747
3.88096
3.88786
3.89537
3.90349
3.9122
3.92147
3.93128
3.94162
3.95246
3.96377
3.97552
3.98769
4.00024
4.01313
4.02634
4.03981
4.0535
4.06737
4.08137
4.09544
4.10954
4.12362
4.13765
4.15155
4.16527
4.17873
4.19188
4.20463
4.21693
4.2287
4.23989
4.25041
3.75303
3.75433
3.75651
3.75941
3.76299
3.76723
3.77212
3.77766
3.78385
3.79066
3.7981
3.80614
3.81478
3.82399
3.83375
3.84405
3.85487
3.86617
3.87794
3.89014
3.90274
3.91571
3.92901
3.9426
3.95643
3.97047
3.98465
3.99894
4.01328
4.02764
4.04197
4.05618
4.07022
4.08401
4.09748
4.11057
4.12319
4.13529
4.14678
4.15759
3.66903
3.67031
3.67246
3.67533
3.67888
3.68308
3.68793
3.69343
3.69958
3.70636
3.71378
3.7218
3.73043
3.73965
3.74945
3.75979
3.77068
3.78207
3.79395
3.80629
3.81906
3.83223
3.84575
3.85959
3.87371
3.88805
3.90257
3.91722
3.93197
3.94677
3.96153
3.9762
3.9907
4.00495
4.01889
4.03243
4.0455
4.05803
4.06994
4.08116
3.5959
3.59714
3.59926
3.6021
3.60563
3.60982
3.61466
3.62016
3.62631
3.63312
3.64056
3.64863
3.65733
3.66663
3.67653
3.68702
3.69806
3.70964
3.72175
3.73434
3.7474
3.76088
3.77475
3.78898
3.80351
3.8183
3.8333
3.84847
3.86377
3.87913
3.89448
3.90973
3.92482
3.93966
3.95418
3.96829
3.98192
3.99499
4.00742
4.01912
3.53203
3.53322
3.53529
3.53811
3.54163
3.54582
3.55069
3.55622
3.56243
3.56929
3.57682
3.585
3.59383
3.6033
3.61339
3.62409
3.63539
3.64726
3.65969
3.67264
3.68609
3.70001
3.71436
3.72909
3.74417
3.75954
3.77516
3.79099
3.80697
3.82303
3.83907
3.85503
3.87082
3.88636
3.90156
3.91635
3.93063
3.94432
3.95735
3.96963
3.47599
3.47713
3.47915
3.48195
3.48547
3.48969
3.49461
3.50021
3.5065
3.51349
3.52116
3.52951
3.53854
3.54824
3.55859
3.5696
3.58123
3.59348
3.60633
3.61975
3.6337
3.64816
3.66309
3.67845
3.69419
3.71027
3.72663
3.74324
3.76001
3.77686
3.79372
3.81049
3.82708
3.84342
3.8594
3.87494
3.88996
3.90435
3.91805
3.93096
3.42656
3.42764
3.42963
3.43241
3.43595
3.44021
3.4452
3.45091
3.45733
3.46448
3.47234
3.48091
3.4902
3.5002
3.51089
3.52227
3.53433
3.54704
3.5604
3.57436
3.58891
3.60402
3.61964
3.63572
3.65223
3.66912
3.68633
3.70381
3.72147
3.73922
3.75698
3.77465
3.79214
3.80935
3.8262
3.84257
3.85839
3.87356
3.88799
3.90159
3.3827
3.38373
3.38567
3.38845
3.39201
3.39634
3.40143
3.40727
3.41386
3.4212
3.4293
3.43815
3.44776
3.45811
3.4692
3.48102
3.49357
3.50682
3.52075
3.53535
3.55058
3.56641
3.5828
3.59971
3.61708
3.63487
3.65302
3.67146
3.69009
3.70883
3.72757
3.74623
3.76469
3.78286
3.80064
3.81792
3.83461
3.85062
3.86584
3.88019
3.3435
3.34448
3.34639
3.34917
3.35278
3.35719
3.36239
3.36839
3.37518
3.38276
3.39113
3.4003
3.41027
3.42102
3.43257
3.44489
3.45799
3.47183
3.48642
3.50171
3.51769
3.53432
3.55156
3.56936
3.58767
3.60644
3.6256
3.64507
3.66476
3.68456
3.70437
3.72408
3.7436
3.7628
3.78158
3.79984
3.81747
3.83437
3.85045
3.8656
3.30821
3.30914
3.31102
3.31381
3.31747
3.32198
3.32732
3.3335
3.34051
3.34836
3.35704
3.36657
3.37693
3.38813
3.40017
3.41304
3.42673
3.44123
3.45651
3.47257
3.48935
3.50684
3.52499
3.54375
3.56307
3.58288
3.60313
3.6237
3.64451
3.66545
3.6864
3.70725
3.72789
3.74819
3.76806
3.78736
3.806
3.82387
3.84086
3.85687
3.27615
3.27705
3.27891
3.28172
3.28544
3.29006
3.29556
3.30194
3.30919
3.31733
3.32635
3.33625
3.34705
3.35873
3.3713
3.38475
3.39907
3.41426
3.43029
3.44714
3.46479
3.48318
3.5023
3.52207
3.54246
3.56338
3.58477
3.60652
3.62852
3.65066
3.67282
3.69489
3.71673
3.73823
3.75925
3.77969
3.79942
3.81833
3.83631
3.85325
3.24676
3.24764
3.2495
3.25233
3.25613
3.26087
3.26653
3.27312
3.28064
3.28908
3.29845
3.30876
3.32001
3.33219
3.34532
3.35938
3.37437
3.39028
3.40709
3.42478
3.44332
3.46267
3.48279
3.50363
3.52513
3.54722
3.56981
3.5928
3.61606
3.63949
3.66295
3.68631
3.70945
3.73222
3.7545
3.77616
3.79707
3.81712
3.83618
3.85414
3.21957
3.22043
3.22229
3.22517
3.22904
3.23391
3.23975
3.24656
3.25435
3.26311
3.27285
3.28357
3.29529
3.30799
3.32169
3.33639
3.35207
3.36872
3.38634
3.40489
3.42436
3.4447
3.46588
3.48783
3.51049
3.53381
3.55766
3.58195
3.60656
3.63135
3.65619
3.68095
3.70548
3.72964
3.75328
3.77627
3.79847
3.81976
3.84001
3.85909
3.19416
3.19501
3.19688
3.1998
3.20377
3.20877
3.21479
3.22183
3.22989
3.23898
3.24909
3.26024
3.27243
3.28567
3.29996
3.3153
3.33168
3.3491
3.36754
3.38699
3.40741
3.42877
3.45104
3.47415
3.49803
3.52262
3.54781
3.57348
3.5995
3.62575
3.65208
3.67834
3.70437
3.73003
3.75516
3.77962
3.80325
3.82591
3.84747
3.86779
3.17017
3.17102
3.17291
3.17589
3.17994
3.18508
3.19128
3.19855
3.20689
3.21631
3.2268
3.23838
3.25105
3.26483
3.27971
3.2957
3.31279
3.33099
3.35027
3.37063
3.39204
3.41445
3.43784
3.46215
3.48731
3.51323
3.53982
3.56695
3.59448
3.62229
3.65021
3.67809
3.70577
3.73307
3.75984
3.78592
3.81113
3.83533
3.85836
3.88007
3.14728
3.14815
3.15007
3.1531
3.15725
3.16253
3.16892
3.17642
3.18503
3.19477
3.20564
3.21765
3.2308
3.24511
3.26059
3.27723
3.29505
3.31403
3.33417
3.35545
3.37786
3.40136
3.42591
3.45145
3.47794
3.50526
3.53332
3.56199
3.59114
3.62062
3.65027
3.67992
3.70939
3.73851
3.7671
3.79497
3.82197
3.84789
3.87258
3.89586
3.12525
3.12613
3.12809
3.13118
3.13543
3.14084
3.14741
3.15514
3.16403
3.17409
3.18533
3.19776
3.21139
3.22623
3.2423
3.2596
3.27813
3.2979
3.3189
3.34113
3.36455
3.38916
3.4149
3.44174
3.4696
3.49839
3.528
3.55831
3.58919
3.62047
3.65199
3.68357
3.71502
3.74616
3.77678
3.80669
3.83569
3.86358
3.89015
3.91521
3.10383
3.10474
3.10673
3.10989
3.11424
3.11979
3.12654
3.13448
3.14364
3.15401
3.16561
3.17845
3.19255
3.20792
3.22457
3.24252
3.26177
3.28232
3.30419
3.32737
3.35183
3.37756
3.40454
3.4327
3.46199
3.49232
3.52358
3.55564
3.58837
3.6216
3.65517
3.68887
3.72252
3.7559
3.78881
3.82102
3.85231
3.88245
3.91118
3.93828
3.08284
3.08377
3.08581
3.08904
3.09349
3.09917
3.10608
3.11424
3.12365
3.13433
3.14628
3.15952
3.17407
3.18995
3.20717
3.22576
3.24572
3.26706
3.2898
3.31392
3.33944
3.36632
3.39456
3.4241
3.45488
3.48681
3.51981
3.55374
3.58846
3.62381
3.65961
3.69567
3.73176
3.76768
3.80319
3.83803
3.87196
3.90468
3.93591
3.96536
3.0621
3.06306
3.06515
3.06844
3.07299
3.0788
3.08588
3.09424
3.10389
3.11485
3.12714
3.14077
3.15576
3.17213
3.18991
3.20912
3.22978
3.2519
3.2755
3.30058
3.32715
3.35521
3.38473
3.41568
3.44801
3.48164
3.51647
3.55239
3.58926
3.62692
3.66518
3.70384
3.74269
3.78148
3.81995
3.85784
3.89481
3.93054
3.96468
3.99687
3.04147
3.04246
3.0446
3.04796
3.0526
3.05853
3.06576
3.07432
3.0842
3.09543
3.10804
3.12203
3.13744
3.15429
3.17261
3.19243
3.21376
3.23665
3.2611
3.28713
3.31477
3.34401
3.37485
3.40725
3.44118
3.47657
3.51335
3.55139
3.59058
3.63075
3.67173
3.7133
3.75525
3.79731
3.83921
3.88062
3.92117
3.96044
3.99799
4.03339
3.02082
3.02184
3.02403
3.02747
3.03219
3.03824
3.04561
3.05434
3.06444
3.07593
3.08883
3.10317
3.11897
3.13628
3.15511
3.17551
3.19751
3.22114
3.24643
3.27341
3.30211
3.33254
3.36471
3.39859
3.43418
3.47141
3.51023
3.55054
3.59223
3.63514
3.67912
3.72395
3.76941
3.81524
3.86111
3.90666
3.95143
3.99489
4.0365
4.0757
3.00006
3.00111
3.00335
3.00685
3.01166
3.01781
3.02532
3.03421
3.0445
3.05622
3.0694
3.08406
3.10023
3.11797
3.13729
3.15825
3.18088
3.20523
3.23133
3.25925
3.289
3.32061
3.35412
3.38951
3.42679
3.46594
3.50691
3.54963
3.594
3.63991
3.68719
3.73568
3.78514
3.83532
3.88586
3.9363
3.98611
4.03461
4.0811
4.12483
2.97909
2.98017
2.98245
2.98601
2.9909
2.99715
3.00478
3.01381
3.02429
3.03622
3.04964
3.0646
3.08112
3.09925
3.11903
3.14051
3.16374
3.18878
3.21568
3.2445
3.27528
3.30806
3.3429
3.37981
3.41883
3.45995
3.50316
3.54842
3.59567
3.64482
3.69577
3.74837
3.80242
3.85765
3.91368
3.96999
4.02588
4.08051
4.13292
4.18215
2.95784
2.95895
2.96128
2.96489
2.96985
2.97618
2.98392
2.99308
3.00371
3.01583
3.02948
3.0447
3.06153
3.08003
3.10023
3.1222
3.146
3.17169
3.19934
3.22902
3.2608
3.29473
3.33088
3.3693
3.41006
3.45319
3.49872
3.54665
3.59697
3.64965
3.70464
3.76185
3.82115
3.88228
3.94485
4.00824
4.07157
4.13374
4.19348
4.24946
2.93626
2.93739
2.93976
2.94343
2.94844
2.95485
2.96267
2.97195
2.98271
2.995
3.00885
3.0243
3.04141
3.06023
3.08081
3.10323
3.12755
3.15385
3.18221
3.21271
3.24542
3.28045
3.31787
3.35779
3.40028
3.44543
3.49332
3.54402
3.59758
3.65406
3.71349
3.77589
3.84121
3.90926
3.97965
4.05165
4.1242
4.19581
4.26475
4.3292
2.91429
2.91545
2.91785
2.92156
2.92663
2.9331
2.941
2.95037
2.96124
2.97367
2.98768
3.00334
3.02069
3.03979
3.06072
3.08354
3.10833
3.13518
3.16419
3.19543
3.22902
3.26508
3.30371
3.34505
3.38924
3.4364
3.48667
3.5402
3.59715
3.65767
3.72194
3.79014
3.86235
3.93852
4.0183
4.10091
4.185
4.26863
4.34938
4.42462
2.89191
2.89308
2.89552
2.89926
2.90437
2.91089
2.91885
2.92829
2.93925
2.95179
2.96594
2.98177
2.99932
3.01868
3.0399
3.06307
3.08827
3.11561
3.14518
3.17709
3.21147
3.24847
3.28822
3.33091
3.3767
3.4258
3.47842
3.5348
3.59521
3.65998
3.72948
3.80409
3.88415
3.96984
4.06095
4.15669
4.25543
4.35463
4.45089
4.54015
2.86908
2.87027
2.87273
2.8765
2.88165
2.88819
2.8962
2.90569
2.91673
2.92935
2.94361
2.95957
2.97729
2.99685
3.01831
3.04178
3.06733
3.09507
3.12512
3.1576
3.19267
3.23048
3.27123
3.31513
3.36241
3.41332
3.46819
3.52735
3.59125
3.6604
3.73543
3.81705
3.90597
4.00275
4.1075
4.21957
4.33712
4.4569
4.57397
4.682
2.84579
2.847
2.84948
2.85327
2.85843
2.865
2.87303
2.88256
2.89364
2.90633
2.92067
2.93673
2.95458
2.97429
2.99595
3.01964
3.04546
3.07351
3.10394
3.13688
3.1725
3.21099
3.25259
3.29753
3.3461
3.39865
3.45558
3.51738
3.58466
3.6582
3.73896
3.82808
3.92683
4.03637
4.15744
4.28982
4.43175
4.57918
4.72495
4.85916
2.82204
2.82326
2.82575
2.82955
2.83472
2.8413
2.84934
2.85889
2.87
2.88272
2.89712
2.91325
2.93119
2.95101
2.9728
2.99664
3.02263
3.0509
3.08159
3.11485
3.15088
3.18989
3.23213
3.27789
3.32753
3.38146
3.44018
3.50435
3.57477
3.65253
3.739
3.83592
3.94529
4.06923
4.20953
4.36702
4.54064
4.72577
4.91252
5.08528
2.79782
2.79905
2.80154
2.80535
2.81052
2.8171
2.82514
2.83469
2.84581
2.85854
2.87297
2.88914
2.90713
2.927
2.94885
2.97275
2.99883
3.02721
3.05803
3.09147
3.12773
3.16706
3.20972
3.25605
3.30646
3.36143
3.42158
3.48771
3.56086
3.64244
3.73434
3.83898
3.95939
4.09902
4.2614
4.44942
4.66392
4.90097
5.14854
5.38184
2.77315
2.77437
2.77687
2.78067
2.78583
2.7924
2.80043
2.80997
2.82108
2.83382
2.84825
2.86442
2.8824
2.90227
2.9241
2.94799
2.97405
3.00242
3.03324
3.0667
3.10301
3.14243
3.18525
3.23186
3.28268
3.33829
3.3994
3.46694
3.5422
3.62694
3.72358
3.83537
3.96655
4.12239
4.30898
4.53279
4.79885
5.1077
5.44802
5.78446
2.74803
2.74925
2.75174
2.75553
2.76068
2.76723
2.77524
2.78476
2.79585
2.80857
2.82297
2.8391
2.85703
2.87682
2.89857
2.92235
2.9483
2.97653
3.0072
3.04051
3.07667
3.11594
3.15866
3.2052
3.25605
3.31183
3.37332
3.4416
3.51816
3.60508
3.70532
3.82298
3.96367
4.1348
4.34597
4.60901
4.93726
5.34291
5.82667
6.35448
2.72248
2.7237
2.72618
2.72996
2.73508
2.74161
2.74959
2.75909
2.77015
2.78282
2.79715
2.8132
2.83102
2.85068
2.87227
2.89586
2.92158
2.94955
2.97993
3.0129
3.0487
3.08759
3.12989
3.17602
3.22648
3.2819
3.34314
3.41137
3.48822
3.57606
3.67829
3.79976
3.94738
4.13078
4.36351
4.66449
5.06074
5.58868
6.2903
7.19207
2.69654
2.69775
2.70021
2.70397
2.70907
2.71557
2.72352
2.73298
2.74399
2.75659
2.77082
2.78675
2.80441
2.82388
2.84523
2.86854
2.89392
2.9215
2.95143
2.9839
3.01912
3.05737
3.09898
3.14434
3.19396
3.24849
3.30881
3.37612
3.45215
3.53942
3.64161
3.7641
3.91468
4.10469
4.35095
4.67961
5.13491
5.79517
6.80537
8.42949
4.8381
4.84706
4.85516
4.86237
4.86863
4.87391
4.87817
4.88139
4.88354
4.88462
4.88462
4.88354
4.88139
4.87817
4.87391
4.86863
4.86237
4.85516
4.84706
4.8381
4.65794
4.66676
4.67474
4.68184
4.688
4.6932
4.69739
4.70056
4.70268
4.70374
4.70374
4.70268
4.70056
4.69739
4.6932
4.688
4.68184
4.67474
4.66676
4.65794
4.50312
4.5119
4.51985
4.52692
4.53306
4.53824
4.54241
4.54557
4.54768
4.54874
4.54874
4.54768
4.54557
4.54241
4.53824
4.53306
4.52692
4.51985
4.5119
4.50312
4.3713
4.38014
4.38815
4.39527
4.40146
4.40668
4.41089
4.41407
4.4162
4.41727
4.41727
4.4162
4.41407
4.41089
4.40668
4.40146
4.39527
4.38815
4.38014
4.3713
4.2602
4.26921
4.27737
4.28463
4.29095
4.29627
4.30057
4.30382
4.30599
4.30708
4.30708
4.30599
4.30382
4.30057
4.29627
4.29095
4.28463
4.27737
4.26921
4.2602
4.16767
4.17694
4.18535
4.19283
4.19933
4.20482
4.20925
4.2126
4.21485
4.21597
4.21597
4.21485
4.2126
4.20925
4.20482
4.19933
4.19283
4.18535
4.17694
4.16767
4.09161
4.10124
4.10996
4.11773
4.12449
4.1302
4.13481
4.13829
4.14062
4.14179
4.14179
4.14062
4.13829
4.13481
4.1302
4.12449
4.11773
4.10996
4.10124
4.09161
4.03004
4.04009
4.04921
4.05733
4.0644
4.07036
4.07519
4.07883
4.08128
4.0825
4.0825
4.08128
4.07883
4.07519
4.07036
4.0644
4.05733
4.04921
4.04009
4.03004
3.98107
3.99162
4.00118
4.00971
4.01713
4.0234
4.02847
4.0323
4.03487
4.03616
4.03616
4.03487
4.0323
4.02847
4.0234
4.01713
4.00971
4.00118
3.99162
3.98107
3.943
3.95409
3.96416
3.97313
3.98095
3.98755
3.99289
3.99693
3.99964
4.001
4.001
3.99964
3.99693
3.99289
3.98755
3.98095
3.97313
3.96416
3.95409
3.943
3.91428
3.92597
3.93658
3.94604
3.95429
3.96125
3.96688
3.97114
3.974
3.97543
3.97543
3.974
3.97114
3.96688
3.96125
3.95429
3.94604
3.93658
3.92597
3.91428
3.89357
3.9059
3.9171
3.92708
3.93578
3.94313
3.94908
3.95357
3.95659
3.95811
3.95811
3.95659
3.95357
3.94908
3.94313
3.93578
3.92708
3.9171
3.9059
3.89357
3.87973
3.89275
3.90457
3.91511
3.9243
3.93206
3.93834
3.94309
3.94628
3.94788
3.94788
3.94628
3.94309
3.93834
3.93206
3.9243
3.91511
3.90457
3.89275
3.87973
3.87181
3.88557
3.89806
3.9092
3.91891
3.92711
3.93375
3.93876
3.94213
3.94382
3.94382
3.94213
3.93876
3.93375
3.92711
3.91891
3.9092
3.89806
3.88557
3.87181
3.86906
3.88362
3.89683
3.90862
3.91888
3.92756
3.93457
3.93987
3.94343
3.94522
3.94522
3.94343
3.93987
3.93457
3.92756
3.91888
3.90862
3.89683
3.88362
3.86906
3.87089
3.88632
3.90032
3.9128
3.92367
3.93285
3.94027
3.94589
3.94965
3.95153
3.95153
3.94965
3.94589
3.94027
3.93285
3.92367
3.9128
3.90032
3.88632
3.87089
3.87688
3.89326
3.90813
3.92137
3.9329
3.94263
3.95049
3.95643
3.96041
3.96241
3.96241
3.96041
3.95643
3.95049
3.94263
3.9329
3.92137
3.90813
3.89326
3.87688
3.88673
3.90418
3.92
3.93408
3.94633
3.95666
3.965
3.9713
3.97552
3.97764
3.97764
3.97552
3.9713
3.965
3.95666
3.94633
3.93408
3.92
3.90418
3.88673
3.9003
3.91893
3.93581
3.95082
3.96387
3.97485
3.98372
3.99041
3.99488
3.99713
3.99713
3.99488
3.99041
3.98372
3.97485
3.96387
3.95082
3.93581
3.91893
3.9003
3.91755
3.9375
3.95557
3.97162
3.98554
3.99725
4.00668
4.01379
4.01855
4.02093
4.02093
4.01855
4.01379
4.00668
3.99725
3.98554
3.97162
3.95557
3.9375
3.91755
3.93856
3.96001
3.97941
3.99661
4.01151
4.02401
4.03406
4.04163
4.04668
4.04921
4.04921
4.04668
4.04163
4.03406
4.02401
4.01151
3.99661
3.97941
3.96001
3.93856
3.96352
3.98668
4.00758
4.02607
4.04204
4.05541
4.06614
4.07419
4.07956
4.08224
4.08224
4.07956
4.07419
4.06614
4.05541
4.04204
4.02607
4.00758
3.98668
3.96352
3.99277
4.01788
4.04048
4.06041
4.07757
4.09189
4.10333
4.1119
4.1176
4.12045
4.12045
4.1176
4.1119
4.10333
4.09189
4.07757
4.06041
4.04048
4.01788
3.99277
4.02679
4.05413
4.07866
4.1002
4.11867
4.134
4.14621
4.15533
4.16137
4.16439
4.16439
4.16137
4.15533
4.14621
4.134
4.11867
4.1002
4.07866
4.05413
4.02679
4.06622
4.09614
4.12285
4.1462
4.16609
4.18252
4.19552
4.20516
4.21154
4.21471
4.21471
4.21154
4.20516
4.19552
4.18252
4.16609
4.1462
4.12285
4.09614
4.06622
4.11196
4.14485
4.17406
4.1994
4.22082
4.23834
4.2521
4.26224
4.26891
4.27221
4.27221
4.26891
4.26224
4.2521
4.23834
4.22082
4.1994
4.17406
4.14485
4.11196
4.16514
4.20151
4.23354
4.26106
4.28403
4.30261
4.31704
4.32758
4.33446
4.33785
4.33785
4.33446
4.32758
4.31704
4.30261
4.28403
4.26106
4.23354
4.20151
4.16514
4.22732
4.26774
4.30295
4.33274
4.35724
4.37675
4.39167
4.40242
4.40936
4.41277
4.41277
4.40936
4.40242
4.39167
4.37675
4.35724
4.33274
4.30295
4.26774
4.22732
4.30052
4.34569
4.38439
4.41651
4.44237
4.4625
4.47757
4.48823
4.49501
4.4983
4.4983
4.49501
4.48823
4.47757
4.4625
4.44237
4.41651
4.38439
4.34569
4.30052
4.38745
4.43815
4.48064
4.51497
4.54178
4.56199
4.57664
4.5867
4.59294
4.59593
4.59593
4.59294
4.5867
4.57664
4.56199
4.54178
4.51497
4.48064
4.43815
4.38745
4.49175
4.54891
4.59535
4.63146
4.65841
4.67774
4.69104
4.69972
4.70488
4.70727
4.70727
4.70488
4.69972
4.69104
4.67774
4.65841
4.63146
4.59535
4.54891
4.49175
4.61847
4.68314
4.73339
4.77024
4.79583
4.81267
4.82316
4.8293
4.83257
4.83397
4.83397
4.83257
4.8293
4.82316
4.81267
4.79583
4.77024
4.73339
4.68314
4.61847
4.77476
4.84805
4.90123
4.93667
4.95823
4.96999
4.97546
4.97738
4.97767
4.97753
4.97753
4.97767
4.97738
4.97546
4.96999
4.95823
4.93667
4.90123
4.84805
4.77476
4.97127
5.05404
5.10761
5.13735
5.1503
5.15292
5.15018
5.1456
5.14146
5.13908
5.13908
5.14146
5.1456
5.15018
5.15292
5.1503
5.13735
5.10761
5.05404
4.97127
5.22466
5.31656
5.36426
5.38008
5.37678
5.36419
5.34888
5.33489
5.32456
5.31913
5.31913
5.32456
5.33489
5.34888
5.36419
5.37678
5.38008
5.36426
5.31656
5.22466
5.56328
5.65966
5.68679
5.67324
5.64143
5.60511
5.57173
5.54499
5.5266
5.51727
5.51727
5.5266
5.54499
5.57173
5.60511
5.64143
5.67324
5.68679
5.65966
5.56328
6.04222
6.12278
6.09456
6.02348
5.94489
5.87411
5.81667
5.77398
5.74592
5.73205
5.73205
5.74592
5.77398
5.81667
5.87411
5.94489
6.02348
6.09456
6.12278
6.04222
6.79018
6.77105
6.60568
6.4296
6.28073
6.16471
6.07856
6.01804
5.97962
5.96097
5.96097
5.97962
6.01804
6.07856
6.16471
6.28073
6.4296
6.60568
6.77105
6.79018
8.19126
7.69548
7.21352
6.86879
6.62985
6.46385
6.34897
6.27169
6.22392
6.20107
6.20107
6.22392
6.27169
6.34897
6.46385
6.62985
6.86879
7.21352
7.69548
8.19126
11.819
8.87271
7.81387
7.27597
6.95705
6.75277
6.61765
6.52912
6.47523
6.44966
6.44966
6.47523
6.52912
6.61765
6.75277
6.95705
7.27597
7.81387
8.87271
11.819
4.82835
4.81786
4.8067
4.79492
4.7826
4.7698
4.75658
4.74299
4.72911
4.71497
4.70064
4.68617
4.67161
4.65702
4.64246
4.62799
4.61364
4.59948
4.58555
4.57189
4.55854
4.54555
4.53296
4.52079
4.50909
4.49788
4.4872
4.47708
4.46754
4.45861
4.45032
4.44268
4.43571
4.42944
4.42388
4.41903
4.41491
4.41154
4.40899
4.40746
4.64834
4.63802
4.62704
4.61545
4.60334
4.59074
4.57774
4.56439
4.55075
4.53688
4.52283
4.50864
4.49438
4.4801
4.46585
4.4517
4.43767
4.42384
4.41023
4.3969
4.38389
4.37123
4.35896
4.34712
4.33574
4.32484
4.31447
4.30464
4.29539
4.28673
4.27869
4.2713
4.26456
4.2585
4.25312
4.24846
4.24452
4.24134
4.23902
4.23772
4.49357
4.4833
4.47238
4.46086
4.44882
4.43631
4.4234
4.41016
4.39664
4.3829
4.369
4.35499
4.34092
4.32684
4.3128
4.29885
4.28506
4.27145
4.25808
4.245
4.23223
4.21983
4.20781
4.19623
4.1851
4.17446
4.16433
4.15475
4.14573
4.1373
4.12948
4.12229
4.11574
4.10986
4.10466
4.10015
4.09636
4.09331
4.09107
4.08977
4.36168
4.35134
4.34035
4.32877
4.31667
4.30411
4.29115
4.27787
4.26433
4.25058
4.2367
4.22273
4.20872
4.19471
4.18075
4.16691
4.15323
4.13975
4.12652
4.11358
4.10098
4.08874
4.0769
4.06549
4.05455
4.04409
4.03415
4.02476
4.01592
4.00768
4.00003
3.99301
3.98662
3.98089
3.97583
3.97144
3.96775
3.96477
3.96256
3.96125
4.25041
4.23989
4.2287
4.21693
4.20463
4.19188
4.17873
4.16527
4.15155
4.13765
4.12362
4.10954
4.09544
4.08137
4.06737
4.0535
4.03981
4.02634
4.01313
4.00024
3.98769
3.97552
3.96377
3.95246
3.94162
3.93128
3.92147
3.9122
3.90349
3.89537
3.88786
3.88096
3.8747
3.86908
3.86412
3.85982
3.85619
3.85326
3.85106
3.84975
4.15759
4.14678
4.13529
4.12319
4.11057
4.09748
4.08401
4.07022
4.05618
4.04197
4.02764
4.01328
3.99894
3.98465
3.97047
3.95643
3.9426
3.92901
3.91571
3.90274
3.89014
3.87794
3.86617
3.85487
3.84405
3.83375
3.82399
3.81478
3.80614
3.7981
3.79066
3.78385
3.77766
3.77212
3.76723
3.76299
3.75941
3.75651
3.75433
3.75303
4.08116
4.06994
4.05803
4.0455
4.03243
4.01889
4.00495
3.9907
3.9762
3.96153
3.94677
3.93197
3.91722
3.90257
3.88805
3.87371
3.85959
3.84575
3.83223
3.81906
3.80629
3.79395
3.78207
3.77068
3.75979
3.74945
3.73965
3.73043
3.7218
3.71378
3.70636
3.69958
3.69343
3.68793
3.68308
3.67888
3.67533
3.67246
3.67031
3.66903
4.01912
4.00742
3.99499
3.98192
3.96829
3.95418
3.93966
3.92482
3.90973
3.89448
3.87913
3.86377
3.84847
3.8333
3.8183
3.80351
3.78898
3.77475
3.76088
3.7474
3.73434
3.72175
3.70964
3.69806
3.68702
3.67653
3.66663
3.65733
3.64863
3.64056
3.63312
3.62631
3.62016
3.61466
3.60982
3.60563
3.6021
3.59926
3.59714
3.5959
3.96963
3.95735
3.94432
3.93063
3.91635
3.90156
3.88636
3.87082
3.85503
3.83907
3.82303
3.80697
3.79099
3.77516
3.75954
3.74417
3.72909
3.71436
3.70001
3.68609
3.67264
3.65969
3.64726
3.63539
3.62409
3.61339
3.6033
3.59383
3.585
3.57682
3.56929
3.56243
3.55622
3.55069
3.54582
3.54163
3.53811
3.53529
3.53322
3.53203
3.93096
3.91805
3.90435
3.88996
3.87494
3.8594
3.84342
3.82708
3.81049
3.79372
3.77686
3.76001
3.74324
3.72663
3.71027
3.69419
3.67845
3.66309
3.64816
3.6337
3.61975
3.60633
3.59348
3.58123
3.5696
3.55859
3.54824
3.53854
3.52951
3.52116
3.51349
3.5065
3.50021
3.49461
3.48969
3.48547
3.48195
3.47915
3.47713
3.47599
3.90159
3.88799
3.87356
3.85839
3.84257
3.8262
3.80935
3.79214
3.77465
3.75698
3.73922
3.72147
3.70381
3.68633
3.66912
3.65223
3.63572
3.61964
3.60402
3.58891
3.57436
3.5604
3.54704
3.53433
3.52227
3.51089
3.5002
3.4902
3.48091
3.47234
3.46448
3.45733
3.45091
3.4452
3.44021
3.43595
3.43241
3.42963
3.42764
3.42656
3.88019
3.86584
3.85062
3.83461
3.81792
3.80064
3.78286
3.76469
3.74623
3.72757
3.70883
3.69009
3.67146
3.65302
3.63487
3.61708
3.59971
3.5828
3.56641
3.55058
3.53535
3.52075
3.50682
3.49357
3.48102
3.4692
3.45811
3.44776
3.43815
3.4293
3.4212
3.41386
3.40727
3.40143
3.39634
3.39201
3.38845
3.38567
3.38373
3.3827
3.8656
3.85045
3.83437
3.81747
3.79984
3.78158
3.7628
3.7436
3.72408
3.70437
3.68456
3.66476
3.64507
3.6256
3.60644
3.58767
3.56936
3.55156
3.53432
3.51769
3.50171
3.48642
3.47183
3.45799
3.44489
3.43257
3.42102
3.41027
3.4003
3.39113
3.38276
3.37518
3.36839
3.36239
3.35719
3.35278
3.34917
3.34639
3.34448
3.3435
3.85687
3.84086
3.82387
3.806
3.78736
3.76806
3.74819
3.72789
3.70725
3.6864
3.66545
3.64451
3.6237
3.60313
3.58288
3.56307
3.54375
3.52499
3.50684
3.48935
3.47257
3.45651
3.44123
3.42673
3.41304
3.40017
3.38813
3.37693
3.36657
3.35704
3.34836
3.34051
3.3335
3.32732
3.32198
3.31747
3.31381
3.31102
3.30914
3.30821
3.85325
3.83631
3.81833
3.79942
3.77969
3.75925
3.73823
3.71673
3.69489
3.67282
3.65066
3.62852
3.60652
3.58477
3.56338
3.54246
3.52207
3.5023
3.48318
3.46479
3.44714
3.43029
3.41426
3.39907
3.38475
3.3713
3.35873
3.34705
3.33625
3.32635
3.31733
3.30919
3.30194
3.29556
3.29006
3.28544
3.28172
3.27891
3.27705
3.27615
3.85414
3.83618
3.81712
3.79707
3.77616
3.7545
3.73222
3.70945
3.68631
3.66295
3.63949
3.61606
3.5928
3.56981
3.54722
3.52513
3.50363
3.48279
3.46267
3.44332
3.42478
3.40709
3.39028
3.37437
3.35938
3.34532
3.33219
3.32001
3.30876
3.29845
3.28908
3.28064
3.27312
3.26653
3.26087
3.25613
3.25233
3.2495
3.24764
3.24676
3.85909
3.84001
3.81976
3.79847
3.77627
3.75328
3.72964
3.70548
3.68095
3.65619
3.63135
3.60656
3.58195
3.55766
3.53381
3.51049
3.48783
3.46588
3.4447
3.42436
3.40489
3.38634
3.36872
3.35207
3.33639
3.32169
3.30799
3.29529
3.28357
3.27285
3.26311
3.25435
3.24656
3.23975
3.23391
3.22904
3.22517
3.22229
3.22043
3.21957
3.86779
3.84747
3.82591
3.80325
3.77962
3.75516
3.73003
3.70437
3.67834
3.65208
3.62575
3.5995
3.57348
3.54781
3.52262
3.49803
3.47415
3.45104
3.42877
3.40741
3.38699
3.36754
3.3491
3.33168
3.3153
3.29996
3.28567
3.27243
3.26024
3.24909
3.23898
3.22989
3.22183
3.21479
3.20877
3.20377
3.1998
3.19688
3.19501
3.19416
3.88007
3.85836
3.83533
3.81113
3.78592
3.75984
3.73307
3.70577
3.67809
3.65021
3.62229
3.59448
3.56695
3.53982
3.51323
3.48731
3.46215
3.43784
3.41445
3.39204
3.37063
3.35027
3.33099
3.31279
3.2957
3.27971
3.26483
3.25105
3.23838
3.2268
3.21631
3.20689
3.19855
3.19128
3.18508
3.17994
3.17589
3.17291
3.17102
3.17017
3.89586
3.87258
3.84789
3.82197
3.79497
3.7671
3.73851
3.70939
3.67992
3.65027
3.62062
3.59114
3.56199
3.53332
3.50526
3.47794
3.45145
3.42591
3.40136
3.37786
3.35545
3.33417
3.31403
3.29505
3.27723
3.26059
3.24511
3.2308
3.21765
3.20564
3.19477
3.18503
3.17642
3.16892
3.16253
3.15725
3.1531
3.15007
3.14815
3.14728
3.91521
3.89015
3.86358
3.83569
3.80669
3.77678
3.74616
3.71502
3.68357
3.65199
3.62047
3.58919
3.55831
3.528
3.49839
3.4696
3.44174
3.4149
3.38916
3.36455
3.34112
3.3189
3.2979
3.27813
3.2596
3.2423
3.22623
3.21139
3.19776
3.18533
3.17409
3.16403
3.15514
3.14741
3.14084
3.13543
3.13118
3.12809
3.12613
3.12525
3.93828
3.91118
3.88245
3.85231
3.82102
3.78881
3.7559
3.72252
3.68887
3.65517
3.6216
3.58837
3.55564
3.52358
3.49232
3.46199
3.4327
3.40454
3.37756
3.35183
3.32737
3.30419
3.28232
3.26177
3.24252
3.22457
3.20792
3.19255
3.17845
3.16561
3.15401
3.14364
3.13448
3.12654
3.11979
3.11424
3.10989
3.10673
3.10474
3.10383
3.96536
3.93591
3.90468
3.87196
3.83803
3.80319
3.76768
3.73176
3.69567
3.65961
3.62381
3.58846
3.55374
3.51981
3.48681
3.45488
3.4241
3.39456
3.36632
3.33944
3.31392
3.2898
3.26706
3.24572
3.22576
3.20717
3.18995
3.17407
3.15952
3.14628
3.13433
3.12365
3.11424
3.10608
3.09917
3.09349
3.08904
3.08581
3.08377
3.08284
3.99687
3.96468
3.93054
3.89481
3.85784
3.81995
3.78148
3.74269
3.70384
3.66518
3.62692
3.58926
3.55239
3.51647
3.48164
3.44801
3.41568
3.38473
3.35521
3.32715
3.30058
3.2755
3.2519
3.22978
3.20912
3.18991
3.17213
3.15576
3.14077
3.12714
3.11485
3.10389
3.09424
3.08588
3.0788
3.07299
3.06844
3.06515
3.06306
3.0621
4.03339
3.99799
3.96044
3.92117
3.88062
3.83921
3.79731
3.75525
3.7133
3.67173
3.63075
3.59058
3.55139
3.51335
3.47657
3.44118
3.40725
3.37485
3.34401
3.31477
3.28713
3.2611
3.23665
3.21376
3.19243
3.17261
3.15429
3.13744
3.12203
3.10804
3.09543
3.0842
3.07432
3.06576
3.05853
3.0526
3.04796
3.04459
3.04246
3.04147
4.0757
4.0365
3.99489
3.95143
3.90666
3.86111
3.81524
3.76941
3.72395
3.67912
3.63514
3.59223
3.55054
3.51023
3.47141
3.43418
3.39859
3.36471
3.33254
3.30211
3.27341
3.24643
3.22114
3.19751
3.17551
3.15511
3.13628
3.11897
3.10317
3.08883
3.07593
3.06444
3.05434
3.04561
3.03824
3.03219
3.02747
3.02403
3.02184
3.02082
4.12483
4.08109
4.03461
3.98611
3.9363
3.88586
3.83532
3.78514
3.73568
3.68719
3.63991
3.594
3.54963
3.50691
3.46594
3.42679
3.38951
3.35412
3.32061
3.289
3.25925
3.23133
3.20523
3.18088
3.15825
3.13729
3.11797
3.10023
3.08406
3.0694
3.05622
3.0445
3.03421
3.02532
3.01781
3.01166
3.00685
3.00335
3.00111
3.00006
4.18215
4.13292
4.08051
4.02588
3.96999
3.91368
3.85765
3.80242
3.74837
3.69577
3.64482
3.59567
3.54842
3.50316
3.45995
3.41883
3.37981
3.3429
3.30806
3.27528
3.2445
3.21568
3.18878
3.16374
3.14051
3.11903
3.09925
3.08112
3.0646
3.04964
3.03622
3.02429
3.01381
3.00478
2.99715
2.9909
2.98601
2.98245
2.98017
2.97909
4.24946
4.19348
4.13374
4.07157
4.00824
3.94485
3.88228
3.82115
3.76185
3.70464
3.64965
3.59696
3.54665
3.49872
3.45319
3.41006
3.3693
3.33088
3.29473
3.2608
3.22902
3.19934
3.17169
3.146
3.1222
3.10023
3.08003
3.06153
3.0447
3.02948
3.01583
3.00371
2.99308
2.98392
2.97618
2.96985
2.96489
2.96128
2.95895
2.95784
4.3292
4.26475
4.19581
4.1242
4.05165
3.97965
3.90926
3.84121
3.77589
3.71349
3.65406
3.59758
3.54402
3.49332
3.44543
3.40028
3.35779
3.31787
3.28045
3.24542
3.21271
3.18221
3.15385
3.12755
3.10323
3.08081
3.06023
3.04141
3.0243
3.00885
2.995
2.98271
2.97195
2.96267
2.95485
2.94844
2.94343
2.93976
2.93739
2.93626
4.42462
4.34938
4.26863
4.185
4.10091
4.0183
3.93852
3.86235
3.79013
3.72194
3.65767
3.59715
3.5402
3.48667
3.4364
3.38924
3.34505
3.30371
3.26508
3.22902
3.19543
3.16419
3.13518
3.10833
3.08354
3.06072
3.03979
3.02069
3.00334
2.98768
2.97367
2.96124
2.95037
2.941
2.9331
2.92663
2.92156
2.91785
2.91545
2.91429
4.54015
4.45089
4.35463
4.25543
4.15669
4.06095
3.96984
3.88415
3.80409
3.72948
3.65998
3.59521
3.5348
3.47842
3.4258
3.3767
3.33091
3.28822
3.24847
3.21147
3.17709
3.14518
3.11561
3.08827
3.06307
3.0399
3.01868
2.99932
2.98177
2.96594
2.95179
2.93925
2.92829
2.91885
2.91089
2.90437
2.89926
2.89552
2.89308
2.89191
4.682
4.57397
4.4569
4.33712
4.21957
4.1075
4.00275
3.90597
3.81705
3.73543
3.6604
3.59125
3.52735
3.46819
3.41332
3.36241
3.31513
3.27123
3.23048
3.19267
3.1576
3.12512
3.09507
3.06733
3.04178
3.01831
2.99685
2.97729
2.95957
2.94361
2.92935
2.91673
2.90569
2.8962
2.88819
2.88165
2.8765
2.87273