/*--------------------------------*- C++ -*----------------------------------*\
  =========                 |
  \\      /  F ield         | OpenFOAM: The Open Source CFD Toolbox
   \\    /   O peration     | Website:  https://openfoam.org
    \\  /    A nd           | Version:  6
     \\/     M anipulation  |
\*---------------------------------------------------------------------------*/
FoamFile
{
    version     2.0;
    format      ascii;
    class       volScalarField;
    location    "20";
    object      neg;
}
// * * * * * * * * * * * * * * * * * * * * * * * * * * * * * * * * * * * * * //

dimensions      [0 -3 1 0 0 1 0];

internalField   nonuniform List<scalar> 
8800
(
8.77367e-05
8.77074e-05
8.77399e-05
8.766e-05
8.76362e-05
8.76096e-05
8.75797e-05
8.75465e-05
8.751e-05
8.74704e-05
8.74278e-05
8.73826e-05
8.73349e-05
8.72851e-05
8.72332e-05
8.71796e-05
8.71244e-05
8.7068e-05
8.70106e-05
8.69523e-05
8.68935e-05
8.68343e-05
8.6775e-05
8.67157e-05
8.66567e-05
8.65983e-05
8.65406e-05
8.64838e-05
8.64282e-05
8.6374e-05
8.63215e-05
8.62733e-05
8.6257e-05
8.62562e-05
8.62603e-05
8.62685e-05
8.628e-05
8.62941e-05
8.63102e-05
8.6328e-05
0.000169218
0.000170495
0.000170526
0.000170324
0.000170171
0.000170064
0.00016998
0.000169904
0.00016983
0.000169753
0.000169672
0.000169587
0.000169499
0.000169407
0.000169312
0.000169216
0.000169118
0.00016902
0.000168922
0.000168826
0.000168732
0.00016864
0.000168551
0.000168466
0.000168384
0.000168307
0.000168234
0.000168165
0.000168101
0.000168045
0.000168007
0.000168048
0.000168147
0.000168262
0.000168388
0.000168523
0.000168662
0.000168805
0.000168948
0.00016909
0.000245355
0.000246565
0.00024661
0.00024637
0.000246174
0.000246026
0.000245908
0.000245801
0.000245699
0.000245594
0.000245487
0.000245376
0.000245261
0.000245146
0.00024503
0.000244917
0.000244808
0.000244705
0.000244609
0.000244523
0.000244448
0.000244385
0.000244335
0.000244298
0.000244275
0.000244264
0.000244266
0.000244282
0.000244317
0.000244393
0.000244584
0.000244904
0.000245245
0.000245608
0.000245987
0.000246374
0.000246763
0.000247151
0.000247532
0.000247903
0.000315366
0.000315463
0.00031526
0.000315009
0.000314831
0.000314696
0.00031458
0.000314471
0.000314363
0.000314253
0.000314142
0.000314031
0.000313921
0.000313816
0.00031372
0.000313636
0.000313568
0.000313519
0.000313493
0.000313492
0.000313518
0.000313572
0.000313655
0.000313768
0.000313908
0.000314076
0.000314273
0.000314504
0.000314793
0.000315207
0.000315878
0.00031655
0.000317251
0.000317976
0.000318712
0.00031945
0.000320181
0.0003209
0.0003216
0.000322275
0.000378451
0.000377019
0.000376368
0.000376042
0.000375884
0.000375783
0.000375698
0.000375615
0.000375532
0.000375449
0.000375368
0.000375295
0.000375233
0.000375188
0.000375166
0.000375173
0.000375214
0.000375294
0.000375417
0.000375587
0.000375805
0.000376074
0.000376393
0.00037676
0.000377175
0.000377639
0.000378157
0.000378751
0.000379486
0.000380524
0.000381617
0.000382728
0.000383866
0.000385019
0.000386173
0.000387316
0.000388436
0.000389527
0.000390581
0.000391593
0.000434458
0.0004313
0.000430085
0.000429628
0.000429473
0.000429413
0.000429379
0.000429349
0.000429322
0.000429301
0.000429292
0.000429301
0.000429338
0.000429408
0.000429521
0.000429684
0.000429905
0.000430188
0.000430539
0.000430962
0.000431459
0.000432029
0.000432671
0.000433386
0.00043417
0.000435031
0.000435984
0.00043708
0.000438441
0.000440049
0.000441615
0.000443201
0.000444802
0.000446403
0.000447985
0.000449537
0.000451046
0.000452504
0.000453905
0.000455243
0.000483609
0.000478645
0.000476814
0.00047619
0.000476026
0.000476012
0.000476044
0.000476091
0.00047615
0.000476227
0.000476329
0.000476466
0.000476649
0.000476887
0.00047719
0.000477568
0.000478028
0.000478577
0.00047922
0.00047996
0.000480797
0.000481732
0.000482763
0.000483888
0.000485108
0.000486436
0.000487904
0.000489589
0.000491652
0.000493706
0.000495745
0.000497793
0.000499838
0.00050186
0.00050384
0.000505765
0.000507622
0.000509406
0.000511109
0.000512729
0.000526325
0.000519597
0.000517142
0.000516338
0.000516156
0.000516191
0.000516301
0.000516445
0.000516616
0.00051682
0.000517067
0.000517368
0.000517737
0.000518183
0.000518719
0.000519354
0.000520096
0.000520952
0.000521926
0.00052302
0.000524235
0.000525568
0.000527018
0.000528584
0.000530271
0.000532099
0.00053412
0.000536443
0.000539019
0.000541502
0.000543972
0.000546435
0.000548871
0.000551257
0.000553574
0.000555808
0.000557948
0.000559989
0.000561928
0.000563764
0.000563145
0.000554804
0.000551753
0.000550765
0.000550563
0.000550649
0.000550846
0.0005511
0.0005514
0.000551753
0.000552168
0.000552659
0.000553238
0.000553918
0.000554711
0.000555626
0.00055667
0.00055785
0.000559169
0.000560628
0.000562226
0.00056396
0.000565829
0.000567832
0.00056998
0.0005723
0.000574858
0.000577781
0.000580696
0.000583554
0.000586391
0.000589199
0.000591953
0.00059463
0.000597208
0.000599673
0.000602018
0.000604239
0.000606337
0.000608315
0.000594667
0.000584946
0.00058135
0.000580183
0.000579958
0.000580095
0.000580382
0.000580753
0.000581193
0.000581705
0.0005823
0.000582992
0.000583793
0.000584715
0.000585771
0.000586968
0.000588313
0.000589813
0.000591467
0.000593277
0.000595239
0.000597351
0.000599611
0.000602019
0.000604589
0.000607352
0.000610369
0.000613728
0.000616938
0.000620098
0.000623226
0.000626301
0.000629296
0.000632185
0.000634946
0.000637566
0.000640039
0.000642364
0.000644548
0.000646597
0.000621498
0.000610676
0.000606603
0.000605267
0.000605018
0.000605202
0.000605578
0.000606067
0.000606647
0.00060732
0.000608096
0.000608987
0.000610007
0.000611165
0.000612473
0.000613939
0.000615568
0.000617363
0.000619325
0.000621453
0.000623742
0.000626189
0.000628791
0.000631552
0.000634486
0.000637635
0.000641097
0.000644653
0.000648091
0.00065148
0.000654821
0.000658087
0.000661249
0.000664279
0.000667155
0.000669863
0.000672399
0.000674767
0.000676975
0.000679036
0.000644217
0.000632597
0.000628125
0.000626634
0.000626356
0.000626582
0.000627042
0.000627642
0.000628357
0.000629184
0.000630132
0.000631212
0.000632435
0.000633812
0.000635351
0.000637059
0.00063894
0.000640996
0.000643225
0.000645625
0.000648191
0.000650919
0.000653805
0.000656853
0.00066008
0.00066353
0.000667292
0.000670979
0.000674579
0.000678126
0.00068161
0.000685002
0.000688268
0.000691381
0.000694318
0.000697064
0.000699617
0.000701982
0.000704172
0.000706204
0.000663362
0.000651246
0.000646459
0.000644827
0.000644516
0.000644775
0.000645308
0.00064601
0.000646848
0.000647815
0.000648919
0.000650169
0.000651574
0.000653144
0.000654885
0.000656802
0.000658897
0.000661171
0.00066362
0.000666242
0.00066903
0.000671979
0.000675085
0.000678352
0.000681796
0.000685455
0.000689394
0.000693171
0.000696872
0.000700515
0.000704085
0.000707548
0.000710872
0.000714026
0.000716988
0.000719741
0.000722284
0.000724623
0.000726774
0.000728754
0.000679411
0.000667089
0.000662071
0.000660314
0.000659967
0.000660248
0.000660842
0.000661632
0.000662577
0.000663668
0.000664908
0.000666304
0.000667865
0.000669597
0.000671506
0.000673594
0.000675862
0.00067831
0.000680932
0.000683724
0.00068668
0.000689792
0.000693057
0.000696478
0.000700074
0.000703914
0.000707885
0.000711707
0.000715458
0.00071915
0.00072276
0.000726255
0.000729603
0.000732775
0.000735745
0.000738492
0.000741015
0.000743324
0.000745443
0.000747364
0.000692788
0.000680526
0.00067536
0.000673497
0.00067311
0.000673401
0.000674043
0.000674904
0.000675938
0.000677132
0.000678486
0.000680004
0.000681692
0.000683555
0.000685597
0.000687819
0.000690221
0.000692798
0.000695548
0.000698462
0.000701535
0.000704758
0.000708128
0.000711645
0.000715332
0.000719288
0.000723228
0.000727058
0.000730821
0.000734527
0.000738148
0.00074165
0.000745003
0.000748195
0.000751179
0.000753916
0.000756421
0.000758703
0.000760782
0.00076266
0.000703847
0.000691901
0.000686667
0.000684714
0.000684283
0.000684574
0.000685247
0.000686163
0.000687269
0.000688545
0.000689988
0.000691602
0.00069339
0.000695354
0.000697496
0.000699817
0.000702315
0.000704984
0.00070782
0.000710814
0.00071396
0.00071725
0.000720678
0.000724244
0.000727967
0.000731963
0.000735864
0.000739675
0.000743424
0.000747144
0.000750767
0.000754261
0.000757607
0.00076079
0.00076377
0.000766514
0.000769024
0.000771306
0.000773375
0.000775239
0.000712916
0.000701482
0.000696276
0.000694254
0.000693772
0.000694051
0.000694742
0.000695697
0.000696854
0.000698192
0.000699704
0.000701389
0.00070325
0.000705286
0.0007075
0.000709888
0.000712449
0.000715176
0.000718063
0.000721103
0.000724287
0.000727607
0.000731056
0.000734634
0.000738416
0.000742375
0.00074623
0.000750007
0.000753726
0.000757409
0.000761008
0.000764488
0.000767829
0.000771013
0.000774008
0.000776782
0.000779327
0.000781644
0.000783741
0.000785624
0.000720278
0.000709508
0.000704413
0.000702353
0.000701822
0.000702077
0.000702769
0.000703744
0.000704936
0.000706317
0.000707878
0.000709613
0.000711523
0.000713608
0.000715866
0.0007183
0.000720899
0.000723659
0.000726574
0.000729634
0.000732833
0.00073616
0.00073961
0.000743179
0.000746978
0.000750841
0.00075464
0.000758375
0.000762058
0.000765701
0.000769272
0.000772742
0.000776087
0.00077929
0.000782323
0.000785154
0.000787769
0.000790159
0.000792324
0.000794268
0.000726177
0.000716181
0.00071127
0.000709204
0.000708631
0.000708856
0.000709538
0.000710519
0.000711729
0.000713136
0.000714726
0.000716493
0.000718433
0.000720547
0.000722831
0.000725285
0.000727901
0.000730671
0.000733591
0.000736651
0.000739842
0.000743158
0.000746589
0.000750133
0.000753896
0.000757675
0.000761415
0.000765106
0.000768753
0.000772362
0.000775914
0.000779382
0.000782747
0.00078599
0.000789086
0.000792005
0.000794724
0.000797228
0.000799505
0.000801552
0.000730823
0.000721673
0.000717009
0.000714969
0.000714364
0.000714555
0.000715218
0.000716194
0.000717408
0.000718826
0.00072043
0.000722211
0.000724166
0.000726291
0.000728583
0.00073104
0.000733654
0.000736419
0.000739327
0.000742371
0.000745542
0.000748832
0.000752234
0.000755774
0.000759447
0.000763147
0.00076683
0.000770482
0.000774101
0.000777688
0.000781233
0.000784715
0.000788119
0.000791426
0.000794613
0.000797651
0.000800512
0.000803168
0.000805601
0.000807795
0.000734396
0.000726129
0.000721762
0.000719779
0.000719156
0.000719315
0.000719952
0.000720913
0.000722121
0.000723537
0.000725141
0.000726924
0.000728878
0.000731001
0.000733287
0.000735733
0.000738333
0.00074108
0.000743965
0.000746983
0.000750125
0.000753383
0.00075675
0.000760268
0.000763859
0.000767489
0.000771123
0.000774744
0.000778346
0.000781927
0.000785482
0.000788999
0.000792464
0.000795862
0.00079917
0.000802361
0.000805399
0.000808249
0.00081088
0.000813265
0.000737048
0.000729675
0.000725643
0.000723747
0.00072312
0.000723251
0.00072386
0.000724799
0.00072599
0.000727394
0.000728988
0.000730761
0.000732705
0.000734814
0.000737083
0.00073951
0.000742086
0.000744806
0.000747663
0.000750649
0.000753758
0.000756982
0.000760324
0.000763792
0.00076732
0.000770894
0.00077449
0.000778092
0.000781691
0.000785285
0.000788873
0.000792447
0.000795999
0.000799517
0.00080298
0.000806358
0.000809612
0.000812697
0.000815568
0.000818187
0.00073891
0.000732418
0.000728747
0.000726966
0.00072635
0.000726459
0.00072704
0.000727952
0.00072912
0.000730504
0.00073208
0.000733835
0.000735759
0.000737847
0.000740093
0.000742493
0.00074504
0.000747729
0.000750554
0.000753507
0.000756582
0.000759773
0.000763098
0.000766509
0.000769988
0.000773522
0.000777094
0.000780691
0.000784304
0.000787931
0.000791574
0.000795232
0.000798901
0.000802572
0.000806227
0.000809832
0.000813343
0.000816705
0.00081986
0.000822757
0.000740094
0.000734451
0.000731157
0.000729511
0.000728925
0.00072902
0.000729574
0.000730458
0.0007316
0.000732958
0.00073451
0.00073624
0.000738139
0.0007402
0.000742417
0.000744786
0.000747302
0.000749959
0.00075275
0.000755671
0.000758715
0.000761881
0.000765173
0.000768545
0.000771991
0.000775503
0.000779067
0.000782674
0.000786319
0.000790002
0.000793726
0.000797496
0.000801315
0.000805177
0.000809064
0.00081294
0.000816754
0.00082044
0.000823927
0.000827148
0.000740694
0.000735853
0.000732943
0.000731451
0.000730908
0.000731
0.000731532
0.000732389
0.000733502
0.000734832
0.000736355
0.000738056
0.000739926
0.000741956
0.000744142
0.000746479
0.000748962
0.000751586
0.000754346
0.000757238
0.000760255
0.000763407
0.000766662
0.000770007
0.000773435
0.00077694
0.000780514
0.000784149
0.000787845
0.000791604
0.000795436
0.000799351
0.000803357
0.000807453
0.000811619
0.000815818
0.000819988
0.000824052
0.000827923
0.000831518
0.00074079
0.000736695
0.000734164
0.00073284
0.000732356
0.000732455
0.000732971
0.000733802
0.000734887
0.000736187
0.00073768
0.00073935
0.000741189
0.000743187
0.000745341
0.000747646
0.000750097
0.00075269
0.000755422
0.000758288
0.000761287
0.000764414
0.000767646
0.000770977
0.000774402
0.000777917
0.000781516
0.000785197
0.000788963
0.000792823
0.000796791
0.000800885
0.00080512
0.000809498
0.000814
0.000818582
0.000823172
0.000827676
0.000831992
0.000836018
0.000740451
0.000737037
0.000734875
0.000733727
0.000733315
0.000733431
0.000733939
0.000734749
0.000735807
0.000737078
0.00073854
0.000740179
0.000741986
0.000743953
0.000746075
0.000748348
0.000750769
0.000753335
0.000756042
0.000758887
0.00076187
0.000764974
0.000768193
0.000771522
0.000774957
0.000778495
0.000782135
0.000785879
0.000789735
0.000793718
0.000797852
0.000802164
0.000806675
0.000811393
0.000816297
0.000821334
0.00082642
0.000831441
0.000836276
0.000840801
0.000739732
0.000736933
0.000735122
0.000734154
0.000733824
0.000733968
0.000734475
0.000735269
0.000736304
0.000737548
0.000738981
0.00074059
0.000742366
0.000744302
0.000746394
0.000748638
0.000751032
0.000753573
0.00075626
0.000759089
0.000762052
0.000765142
0.000768357
0.000771693
0.000775148
0.000778722
0.000782416
0.000786238
0.000790202
0.000794333
0.000798665
0.000803235
0.000808076
0.0008132
0.000818584
0.000824166
0.00082984
0.000835473
0.000840916
0.000846022
0.000738683
0.000736428
0.000734946
0.000734159
0.000733917
0.000734098
0.000734612
0.000735398
0.000736414
0.000737634
0.000739041
0.000740622
0.000742369
0.000744276
0.00074634
0.000748558
0.000750928
0.000753449
0.000756119
0.000758927
0.000761874
0.000764957
0.000768175
0.000771525
0.000775009
0.000778627
0.000782386
0.000786299
0.000790389
0.000794692
0.000799254
0.00080413
0.000809362
0.000814969
0.000820927
0.000827159
0.000833536
0.000839897
0.000846062
0.00085185
0.000737343
0.000735565
0.000734386
0.000733774
0.000733626
0.000733851
0.00073438
0.000735163
0.000736166
0.000737367
0.000738751
0.000740307
0.000742028
0.00074391
0.00074595
0.000748145
0.000750494
0.000752998
0.000755643
0.000758433
0.000761369
0.000764449
0.000767674
0.000771043
0.000774559
0.000778228
0.00078206
0.000786075
0.000790306
0.000794804
0.000799632
0.000804861
0.000810554
0.000816735
0.000823379
0.000830389
0.000837611
0.000844845
0.000851871
0.000858663
0.000735746
0.000734379
0.000733473
0.000733029
0.000732977
0.000733253
0.000733803
0.00073459
0.000735586
0.000736773
0.000738139
0.000739674
0.000741373
0.000743233
0.000745251
0.000747426
0.000749759
0.000752233
0.000754856
0.000757631
0.000760557
0.000763635
0.000766868
0.000770257
0.000773807
0.000777529
0.000781437
0.000785562
0.000789948
0.000794663
0.000799792
0.000805431
0.00081166
0.000818521
0.000825981
0.000833926
0.000842165
0.000850452
0.000858605
0.000866555
0.000733919
0.000732902
0.00073224
0.000731952
0.000731996
0.000732326
0.000732904
0.0007337
0.000734695
0.000735874
0.000737226
0.000738744
0.000740426
0.000742267
0.000744267
0.000746425
0.000748725
0.000751173
0.000753775
0.000756533
0.000759448
0.000762523
0.000765761
0.000769167
0.00077275
0.000776523
0.000780509
0.000784748
0.0007893
0.000794253
0.000799718
0.000805822
0.000812675
0.000820333
0.000828765
0.000837832
0.000847299
0.000856858
0.000866582
0.000875816
0.000731887
0.000731162
0.000730713
0.000730569
0.000730705
0.000731092
0.000731702
0.000732514
0.000733513
0.000734688
0.000736032
0.000737538
0.000739206
0.000741031
0.000743016
0.000745137
0.000747404
0.000749826
0.000752405
0.000755143
0.000758043
0.000761109
0.000764347
0.000767765
0.000771375
0.000775195
0.000779257
0.000783612
0.000788337
0.000793544
0.000799379
0.000806007
0.000813575
0.000822164
0.000831746
0.000842155
0.000853105
0.000864513
0.000875938
0.000886769
0.000729668
0.000729184
0.000728919
0.000728904
0.000729128
0.000729572
0.000730217
0.000731049
0.000732057
0.000733234
0.000734573
0.000736072
0.000737728
0.00073954
0.00074148
0.000743564
0.000745802
0.000748194
0.000750744
0.000753455
0.000756333
0.000759383
0.000762613
0.000766035
0.000769664
0.000773525
0.000777657
0.000782125
0.000787025
0.0007925
0.000798735
0.000805943
0.00081432
0.000823985
0.000834917
0.000846925
0.000859737
0.000873373
0.000886937
0.000899804
0.000727278
0.00072699
0.000726881
0.000726981
0.000727286
0.000727786
0.000728468
0.000729323
0.000730344
0.000731526
0.000732865
0.000734358
0.000736002
0.000737758
0.000739659
0.00074171
0.000743912
0.000746267
0.00074878
0.000751456
0.000754302
0.000757327
0.00076054
0.000763956
0.000767595
0.000771488
0.000775682
0.000780256
0.000785331
0.00079108
0.000797737
0.000805575
0.000814853
0.000825742
0.000838244
0.000852142
0.000867507
0.000883656
0.000899905
0.000916079
0.000724733
0.000724601
0.000724622
0.000724821
0.0007252
0.000725753
0.000726472
0.000727353
0.000728389
0.000729578
0.000730917
0.000732387
0.000733966
0.00073569
0.000737556
0.000739566
0.000741723
0.000744031
0.000746497
0.000749128
0.000751932
0.000754921
0.000758107
0.000761508
0.000765146
0.00076906
0.000773306
0.000777977
0.000783217
0.000789239
0.00079633
0.000804834
0.000815093
0.000827351
0.00084165
0.000857936
0.000876119
0.000895482
0.000916513
0.000935423
0.000722043
0.000722035
0.000722162
0.000722446
0.000722891
0.000723493
0.000724249
0.000725153
0.000726204
0.000727399
0.000728697
0.000730109
0.000731656
0.000733339
0.000735157
0.000737114
0.000739214
0.000741465
0.000743873
0.000746449
0.000749202
0.000752146
0.000755296
0.000758671
0.0007623
0.000766223
0.000770507
0.00077526
0.000780652
0.000786934
0.000794455
0.000803641
0.000814937
0.000828687
0.000845
0.000864117
0.000885502
0.000910654
0.000935644
0.000958239
0.00071922
0.000719307
0.00071952
0.000719877
0.000720379
0.000721025
0.000721812
0.000722738
0.000723796
0.000724928
0.000726181
0.000727558
0.000729059
0.000730686
0.000732442
0.000734333
0.000736365
0.000738547
0.000740888
0.0007434
0.000746094
0.000748986
0.000752092
0.000755433
0.000759042
0.000762963
0.000767271
0.000772089
0.00077761
0.000784127
0.000792054
0.000801909
0.000814258
0.000829583
0.000848212
0.000870264
0.000896836
0.000927375
0.000957366
0.000985078
0.000716271
0.000716432
0.000716716
0.000717131
0.000717681
0.000718364
0.000719177
0.000720092
0.000721079
0.000722182
0.000723395
0.000724719
0.000726156
0.000727712
0.000729392
0.000731203
0.000733156
0.000735259
0.000737526
0.000739967
0.000742597
0.000745431
0.000748487
0.000751789
0.000755369
0.000759277
0.000763594
0.000768454
0.000774075
0.00078079
0.000789076
0.000799549
0.00081291
0.000829807
0.000850737
0.000875792
0.000908858
0.000944724
0.000981301
0.00101661
0.000713205
0.000713424
0.000713763
0.000714226
0.000714814
0.000715524
0.000716309
0.000717167
0.000718122
0.000719176
0.000720326
0.000721576
0.00072293
0.000724397
0.000725986
0.000727706
0.000729569
0.000731588
0.000733774
0.000736142
0.000738704
0.000741479
0.000744483
0.000747741
0.000751286
0.00075517
0.00075948
0.00076436
0.000770047
0.00077691
0.000785484
0.000796481
0.000810743
0.000829059
0.000852041
0.000880566
0.000918868
0.000960801
0.00100566
0.00105275
8.63469e-05
8.63662e-05
8.63855e-05
8.64042e-05
8.64214e-05
8.64365e-05
8.64481e-05
8.6454e-05
8.64483e-05
8.64069e-05
8.64069e-05
8.64483e-05
8.6454e-05
8.64481e-05
8.64365e-05
8.64214e-05
8.64042e-05
8.63855e-05
8.63662e-05
8.63468e-05
0.000169229
0.000169363
0.00016949
0.000169609
0.000169715
0.000169809
0.000169886
0.000169942
0.000169971
0.000169955
0.000169955
0.000169971
0.000169942
0.000169886
0.000169809
0.000169715
0.000169609
0.00016949
0.000169363
0.000169229
0.000248262
0.000248602
0.000248922
0.000249216
0.000249481
0.000249712
0.000249905
0.000250054
0.000250152
0.000250186
0.000250186
0.000250152
0.000250054
0.000249905
0.000249712
0.000249481
0.000249216
0.000248922
0.000248602
0.000248261
0.000322921
0.000323532
0.000324102
0.000324625
0.000325095
0.000325504
0.000325847
0.000326116
0.000326303
0.000326393
0.000326393
0.000326303
0.000326116
0.000325847
0.000325504
0.000325095
0.000324625
0.000324102
0.000323532
0.000322921
0.000392555
0.000393462
0.000394307
0.00039508
0.000395774
0.00039638
0.000396888
0.000397289
0.000397573
0.000397723
0.000397723
0.000397573
0.000397289
0.000396888
0.00039638
0.000395774
0.00039508
0.000394307
0.000393462
0.000392555
0.000456511
0.000457703
0.000458812
0.000459828
0.000460739
0.000461535
0.000462204
0.000462735
0.000463114
0.000463323
0.000463323
0.000463114
0.000462735
0.000462204
0.000461535
0.000460739
0.000459828
0.000458812
0.000457703
0.000456511
0.00051426
0.000515698
0.000517034
0.000518259
0.000519359
0.000520322
0.000521133
0.000521777
0.00052224
0.000522499
0.000522499
0.00052224
0.000521777
0.000521133
0.000520322
0.000519359
0.000518259
0.000517034
0.000515698
0.00051426
0.000565496
0.000567119
0.000568629
0.000570014
0.000571261
0.000572355
0.000573278
0.000574012
0.000574541
0.000574839
0.000574839
0.000574541
0.000574012
0.000573278
0.000572355
0.000571261
0.000570014
0.000568629
0.000567119
0.000565496
0.000610175
0.000611918
0.00061354
0.000615031
0.000616377
0.00061756
0.000618561
0.000619359
0.000619934
0.000620258
0.000620258
0.000619934
0.000619359
0.000618561
0.00061756
0.000616377
0.000615031
0.00061354
0.000611918
0.000610175
0.000648518
0.000650316
0.000651991
0.000653534
0.000654933
0.000656166
0.000657213
0.00065805
0.000658652
0.000658991
0.000658991
0.000658652
0.00065805
0.000657213
0.000656166
0.000654933
0.000653534
0.000651991
0.000650316
0.000648518
0.000680961
0.000682762
0.00068444
0.00068599
0.000687401
0.000688651
0.000689716
0.000690569
0.000691183
0.000691527
0.000691527
0.000691183
0.000690569
0.000689716
0.000688651
0.000687401
0.00068599
0.00068444
0.000682762
0.000680961
0.000708094
0.000709858
0.000711502
0.000713027
0.000714419
0.000715659
0.00071672
0.000717574
0.000718189
0.000718531
0.000718531
0.000718189
0.000717574
0.00071672
0.000715659
0.000714419
0.000713027
0.000711502
0.000709858
0.000708094
0.000730586
0.000732291
0.000733881
0.000735357
0.000736711
0.000737924
0.000738967
0.00073981
0.000740418
0.000740756
0.000740756
0.000740418
0.00073981
0.000738967
0.000737924
0.000736711
0.000735357
0.000733881
0.000732291
0.000730586
0.000749131
0.000750767
0.000752292
0.000753709
0.000755014
0.000756189
0.000757206
0.000758033
0.000758633
0.000758966
0.000758966
0.000758633
0.000758033
0.000757206
0.000756189
0.000755014
0.000753709
0.000752292
0.000750767
0.00074913
0.000764375
0.000765954
0.000767418
0.000768779
0.000770034
0.000771169
0.000772158
0.000772968
0.00077356
0.00077389
0.00077389
0.00077356
0.000772968
0.000772158
0.000771169
0.000770034
0.000768779
0.000767418
0.000765954
0.000764375
0.000776926
0.000778468
0.000779888
0.000781203
0.000782414
0.000783513
0.000784477
0.000785271
0.000785856
0.000786185
0.000786185
0.000785856
0.000785271
0.000784477
0.000783513
0.000782414
0.000781202
0.000779888
0.000778468
0.000776926
0.000787318
0.000788852
0.000790251
0.000791536
0.000792717
0.000793788
0.00079473
0.000795512
0.000796093
0.000796424
0.000796424
0.000796093
0.000795512
0.00079473
0.000793788
0.000792717
0.000791536
0.000790251
0.000788852
0.000787318
0.000796007
0.000797567
0.000798974
0.000800253
0.000801419
0.000802473
0.000803403
0.000804177
0.000804757
0.000805092
0.000805092
0.000804757
0.000804177
0.000803403
0.000802473
0.000801419
0.000800253
0.000798974
0.000797567
0.000796007
0.000803378
0.000805001
0.000806449
0.000807748
0.000808918
0.00080997
0.000810895
0.000811669
0.000812252
0.000812592
0.000812592
0.000812252
0.000811669
0.000810895
0.00080997
0.000808918
0.000807748
0.000806449
0.000805001
0.000803378
0.00080975
0.000811477
0.000813
0.000814347
0.000815545
0.000816609
0.000817541
0.00081832
0.000818909
0.000819257
0.000819257
0.000818909
0.00081832
0.000817541
0.000816609
0.000815545
0.000814347
0.000813
0.000811477
0.00080975
0.000815391
0.000817263
0.000818897
0.000820323
0.000821571
0.000822665
0.000823614
0.000824405
0.000825004
0.000825361
0.000825361
0.000825004
0.000824405
0.000823614
0.000822665
0.000821571
0.000820323
0.000818897
0.000817263
0.000815391
0.000820528
0.000822584
0.000824367
0.000825903
0.000827226
0.000828368
0.000829347
0.000830157
0.00083077
0.000831139
0.000831139
0.00083077
0.000830157
0.000829347
0.000828368
0.000827226
0.000825903
0.000824367
0.000822584
0.000820528
0.000825356
0.000827638
0.000829605
0.000831283
0.000832707
0.000833918
0.000834938
0.000835793
0.000836464
0.00083687
0.00083687
0.000836464
0.000835793
0.000834938
0.000833918
0.000832707
0.000831283
0.000829605
0.000827638
0.000825356
0.000830049
0.000832597
0.000834786
0.000836639
0.00083819
0.000839578
0.000840754
0.000841699
0.000842398
0.00084282
0.00084282
0.000842398
0.000841699
0.000840754
0.000839578
0.00083819
0.000836639
0.000834786
0.000832597
0.000830048
0.000834767
0.000837624
0.000840075
0.00084219
0.000844033
0.000845548
0.000846798
0.000847792
0.000848522
0.00084896
0.00084896
0.000848522
0.000847792
0.000846798
0.000845548
0.000844033
0.00084219
0.000840075
0.000837624
0.000834767
0.000839668
0.000842881
0.000845711
0.000848168
0.000850204
0.000851861
0.000853201
0.000854252
0.000855013
0.000855467
0.000855467
0.000855013
0.000854252
0.000853201
0.000851861
0.000850204
0.000848168
0.000845711
0.000842881
0.000839668
0.000844911
0.000848604
0.00085188
0.000854629
0.000856886
0.000858702
0.000860147
0.000861261
0.000862056
0.000862524
0.000862524
0.000862056
0.000861261
0.000860147
0.000858702
0.000856886
0.000854629
0.00085188
0.000848604
0.000844911
0.0008507
0.000855001
0.000858694
0.000861771
0.000864275
0.00086627
0.000867831
0.000869014
0.000869843
0.000870324
0.000870324
0.000869843
0.000869014
0.000867831
0.00086627
0.000864275
0.000861771
0.000858694
0.000855001
0.0008507
0.000857343
0.000862213
0.000866374
0.000869819
0.000872598
0.000874787
0.000876474
0.000877729
0.000878592
0.000879085
0.000879085
0.000878592
0.000877729
0.000876474
0.000874787
0.000872598
0.000869819
0.000866374
0.000862213
0.000857343
0.00086495
0.000870483
0.000875177
0.000879033
0.000882111
0.000884506
0.000886324
0.000887653
0.00088855
0.000889052
0.000889052
0.00088855
0.000887653
0.000886324
0.000884506
0.000882111
0.000879033
0.000875177
0.000870483
0.00086495
0.000873787
0.000880101
0.000885406
0.000889718
0.000893116
0.000895724
0.000897672
0.00089907
0.000899997
0.000900504
0.000900504
0.000899997
0.00089907
0.000897672
0.000895724
0.000893116
0.000889718
0.000885406
0.000880101
0.000873787
0.000884182
0.000891419
0.000897426
0.000902235
0.000905964
0.000908777
0.000910842
0.000912299
0.000913245
0.000913753
0.000913753
0.000913245
0.000912299
0.000910842
0.000908777
0.000905964
0.000902235
0.000897426
0.000891419
0.000884182
0.000896529
0.000904871
0.000911687
0.000917063
0.00092106
0.000924026
0.000926174
0.000927668
0.000928625
0.000929131
0.000929131
0.000928625
0.000927668
0.000926174
0.000924026
0.00092106
0.000917063
0.000911687
0.000904871
0.000896529
0.000911463
0.000921184
0.000928707
0.000934491
0.000938743
0.000941835
0.000944035
0.000945541
0.000946491
0.000946988
0.000946988
0.000946491
0.000945541
0.000944035
0.000941835
0.000938743
0.000934491
0.000928707
0.000921184
0.000911463
0.000929635
0.000940541
0.000948842
0.000955024
0.000959466
0.000962616
0.000964807
0.00096628
0.000967195
0.000967668
0.000967668
0.000967195
0.00096628
0.000964807
0.000962616
0.000959466
0.000955024
0.000948842
0.000940541
0.000929635
0.000951252
0.000963612
0.000972706
0.000979188
0.000983681
0.000986761
0.000988846
0.000990217
0.000991055
0.000991484
0.000991484
0.000991055
0.000990217
0.000988846
0.000986761
0.000983681
0.000979188
0.000972706
0.000963612
0.000951252
0.000977119
0.000991213
0.00100098
0.00100751
0.00101179
0.0010146
0.00101644
0.00101762
0.00101833
0.00101869
0.00101869
0.00101833
0.00101762
0.00101644
0.0010146
0.00101179
0.00100751
0.00100098
0.000991213
0.000977119
0.00100834
0.00102438
0.00103438
0.00104042
0.00104409
0.00104636
0.00104778
0.00104865
0.00104916
0.00104942
0.00104942
0.00104916
0.00104865
0.00104778
0.00104636
0.00104409
0.00104042
0.00103438
0.00102438
0.00100834
0.00104673
0.00106445
0.00107352
0.00107814
0.00108064
0.00108204
0.00108284
0.00108329
0.00108354
0.00108366
0.00108366
0.00108354
0.00108329
0.00108284
0.00108204
0.00108064
0.00107814
0.00107352
0.00106445
0.00104673
0.00109608
0.00111296
0.00111832
0.00112027
0.00112105
0.00112129
0.0011213
0.00112122
0.00112114
0.00112115
0.00112115
0.00112114
0.00112122
0.0011213
0.00112129
0.00112105
0.00112027
0.00111832
0.00111296
0.00109608
8.6328e-05
8.63102e-05
8.62941e-05
8.628e-05
8.62685e-05
8.62603e-05
8.62562e-05
8.6257e-05
8.62733e-05
8.63215e-05
8.6374e-05
8.64282e-05
8.64838e-05
8.65406e-05
8.65983e-05
8.66567e-05
8.67157e-05
8.6775e-05
8.68343e-05
8.68935e-05
8.69523e-05
8.70106e-05
8.7068e-05
8.71244e-05
8.71796e-05
8.72332e-05
8.7285e-05
8.73349e-05
8.73826e-05
8.74278e-05
8.74704e-05
8.751e-05
8.75465e-05
8.75797e-05
8.76096e-05
8.76362e-05
8.766e-05
8.77398e-05
8.77074e-05
8.77366e-05
0.00016909
0.000168948
0.000168805
0.000168662
0.000168523
0.000168388
0.000168262
0.000168147
0.000168048
0.000168007
0.000168045
0.000168101
0.000168165
0.000168234
0.000168307
0.000168384
0.000168466
0.000168551
0.00016864
0.000168732
0.000168826
0.000168922
0.00016902
0.000169118
0.000169216
0.000169312
0.000169407
0.000169499
0.000169587
0.000169672
0.000169753
0.00016983
0.000169904