/*--------------------------------*- C++ -*----------------------------------*\
  =========                 |
  \\      /  F ield         | OpenFOAM: The Open Source CFD Toolbox
   \\    /   O peration     | Website:  https://openfoam.org
    \\  /    A nd           | Version:  6
     \\/     M anipulation  |
\*---------------------------------------------------------------------------*/
FoamFile
{
    version     2.0;
    format      ascii;
    class       volScalarField;
    location    "20";
    object      p;
}
// * * * * * * * * * * * * * * * * * * * * * * * * * * * * * * * * * * * * * //

dimensions      [0 2 -2 0 0 0 0];

internalField   nonuniform List<scalar> 
8800
(
2.71441e-10
3.82315e-07
6.35841e-07
7.61236e-07
8.38191e-07
9.00216e-07
9.59074e-07
1.01976e-06
1.08466e-06
1.15499e-06
1.23144e-06
1.31456e-06
1.40487e-06
1.50293e-06
1.60937e-06
1.72492e-06
1.85034e-06
1.98647e-06
2.13418e-06
2.2943e-06
2.46765e-06
2.65498e-06
2.85692e-06
3.07394e-06
3.30636e-06
3.55429e-06
3.81765e-06
4.09614e-06
4.38933e-06
4.6966e-06
5.01719e-06
5.35045e-06
5.69478e-06
6.04724e-06
6.40502e-06
6.76515e-06
7.12426e-06
7.47867e-06
7.82447e-06
8.15762e-06
-1.63389e-05
-1.65546e-05
-1.66516e-05
-1.66779e-05
-1.66897e-05
-1.66995e-05
-1.6709e-05
-1.67184e-05
-1.67275e-05
-1.67357e-05
-1.67425e-05
-1.6747e-05
-1.67487e-05
-1.67467e-05
-1.67399e-05
-1.67274e-05
-1.67081e-05
-1.66808e-05
-1.66441e-05
-1.65969e-05
-1.65379e-05
-1.64659e-05
-1.63797e-05
-1.62785e-05
-1.61614e-05
-1.60276e-05
-1.58768e-05
-1.57087e-05
-1.55232e-05
-1.53202e-05
-1.51001e-05
-1.48644e-05
-1.46143e-05
-1.43511e-05
-1.40769e-05
-1.37943e-05
-1.35062e-05
-1.3216e-05
-1.2927e-05
-1.26429e-05
-2.87184e-05
-2.88555e-05
-2.89286e-05
-2.89676e-05
-2.90024e-05
-2.90375e-05
-2.90737e-05
-2.91121e-05
-2.91529e-05
-2.91958e-05
-2.92404e-05
-2.92859e-05
-2.93315e-05
-2.93761e-05
-2.94186e-05
-2.94578e-05
-2.94924e-05
-2.9521e-05
-2.95422e-05
-2.95545e-05
-2.95566e-05
-2.9547e-05
-2.95245e-05
-2.9488e-05
-2.94363e-05
-2.93688e-05
-2.92848e-05
-2.91838e-05
-2.90657e-05
-2.89303e-05
-2.87782e-05
-2.86101e-05
-2.84272e-05
-2.8231e-05
-2.80235e-05
-2.78071e-05
-2.75847e-05
-2.73593e-05
-2.7134e-05
-2.69122e-05
-3.8144e-05
-3.82012e-05
-3.82378e-05
-3.82759e-05
-3.83233e-05
-3.83779e-05
-3.84389e-05
-3.8506e-05
-3.85791e-05
-3.86577e-05
-3.87409e-05
-3.88281e-05
-3.8918e-05
-3.90096e-05
-3.91016e-05
-3.91924e-05
-3.92807e-05
-3.93648e-05
-3.9443e-05
-3.95137e-05
-3.95753e-05
-3.96261e-05
-3.96646e-05
-3.96894e-05
-3.96993e-05
-3.96931e-05
-3.967e-05
-3.96294e-05
-3.95708e-05
-3.94934e-05
-3.93966e-05
-3.92811e-05
-3.9148e-05
-3.89995e-05
-3.88379e-05
-3.86657e-05
-3.84857e-05
-3.83008e-05
-3.8114e-05
-3.79286e-05
-4.60173e-05
-4.60833e-05
-4.61326e-05
-4.61856e-05
-4.62511e-05
-4.6328e-05
-4.64154e-05
-4.65127e-05
-4.66193e-05
-4.67344e-05
-4.68569e-05
-4.69858e-05
-4.71199e-05
-4.72578e-05
-4.73978e-05
-4.75384e-05
-4.76778e-05
-4.78141e-05
-4.79455e-05
-4.807e-05
-4.81856e-05
-4.82905e-05
-4.8383e-05
-4.84614e-05
-4.85241e-05
-4.85699e-05
-4.85977e-05
-4.86068e-05
-4.85958e-05
-4.85631e-05
-4.85075e-05
-4.84301e-05
-4.8333e-05
-4.82185e-05
-4.8089e-05
-4.79471e-05
-4.77956e-05
-4.76376e-05
-4.74759e-05
-4.73136e-05
-5.26348e-05
-5.27178e-05
-5.27813e-05
-5.28469e-05
-5.29266e-05
-5.30208e-05
-5.31288e-05
-5.32498e-05
-5.33831e-05
-5.35275e-05
-5.36819e-05
-5.38448e-05
-5.40148e-05
-5.41902e-05
-5.43693e-05
-5.45501e-05
-5.47305e-05
-5.49086e-05
-5.5082e-05
-5.52487e-05
-5.54065e-05
-5.55533e-05
-5.56871e-05
-5.5806e-05
-5.59083e-05
-5.59927e-05
-5.6058e-05
-5.6103e-05
-5.61252e-05
-5.61222e-05
-5.60943e-05
-5.60432e-05
-5.59711e-05
-5.58803e-05
-5.57734e-05
-5.56532e-05
-5.55225e-05
-5.53843e-05
-5.52415e-05
-5.5097e-05
-5.81719e-05
-5.82603e-05
-5.83304e-05
-5.84045e-05
-5.84952e-05
-5.86031e-05
-5.87276e-05
-5.88679e-05
-5.9023e-05
-5.91915e-05
-5.9372e-05
-5.95629e-05
-5.97625e-05
-5.99687e-05
-6.01796e-05
-6.03929e-05
-6.06064e-05
-6.08177e-05
-6.10245e-05
-6.12242e-05
-6.14146e-05
-6.15934e-05
-6.17583e-05
-6.19074e-05
-6.20389e-05
-6.21512e-05
-6.22429e-05
-6.23122e-05
-6.2355e-05
-6.23698e-05
-6.23588e-05
-6.23235e-05
-6.22663e-05
-6.21895e-05
-6.2096e-05
-6.19888e-05
-6.18707e-05
-6.17448e-05
-6.1614e-05
-6.14809e-05
-6.28204e-05
-6.29086e-05
-6.29824e-05
-6.30632e-05
-6.3163e-05
-6.32822e-05
-6.34204e-05
-6.35765e-05
-6.37495e-05
-6.39378e-05
-6.41396e-05
-6.43531e-05
-6.45764e-05
-6.48071e-05
-6.5043e-05
-6.52817e-05
-6.55207e-05
-6.57573e-05
-6.59889e-05
-6.6213e-05
-6.64271e-05
-6.66286e-05
-6.68152e-05
-6.69848e-05
-6.71356e-05
-6.72658e-05
-6.73739e-05
-6.74562e-05
-6.75088e-05
-6.75323e-05
-6.75291e-05
-6.7501e-05
-6.74501e-05
-6.73793e-05
-6.72916e-05
-6.71901e-05
-6.7078e-05
-6.69582e-05
-6.68335e-05
-6.67065e-05
-6.67415e-05
-6.6827e-05
-6.69029e-05
-6.69888e-05
-6.70956e-05
-6.72237e-05
-6.73724e-05
-6.75408e-05
-6.77275e-05
-6.79308e-05
-6.81487e-05
-6.83793e-05
-6.86201e-05
-6.88688e-05
-6.91228e-05
-6.93795e-05
-6.96362e-05
-6.98901e-05
-7.01384e-05
-7.03784e-05
-7.06075e-05
-7.0823e-05
-7.10225e-05
-7.12038e-05
-7.1365e-05
-7.15043e-05
-7.16195e-05
-7.17055e-05
-7.17598e-05
-7.17849e-05
-7.17827e-05
-7.17548e-05
-7.17039e-05
-7.1633e-05
-7.15454e-05
-7.14444e-05
-7.13332e-05
-7.1215e-05
-7.10923e-05
-7.09678e-05
-7.00612e-05
-7.01416e-05
-7.02179e-05
-7.03071e-05
-7.04188e-05
-7.05531e-05
-7.07094e-05
-7.08864e-05
-7.10827e-05
-7.12965e-05
-7.15255e-05
-7.17675e-05
-7.202e-05
-7.22804e-05
-7.25459e-05
-7.28138e-05
-7.30812e-05
-7.33451e-05
-7.36027e-05
-7.38512e-05
-7.40877e-05
-7.43097e-05
-7.45146e-05
-7.47003e-05
-7.48646e-05
-7.50058e-05
-7.51206e-05
-7.52036e-05
-7.52543e-05
-7.52757e-05
-7.52692e-05
-7.52368e-05
-7.51812e-05
-7.51059e-05
-7.50142e-05
-7.49099e-05
-7.47962e-05
-7.46764e-05
-7.4553e-05
-7.44284e-05
-7.28795e-05
-7.29526e-05
-7.30276e-05
-7.31184e-05
-7.3233e-05
-7.33711e-05
-7.35319e-05
-7.37142e-05
-7.39164e-05
-7.41363e-05
-7.43717e-05
-7.46202e-05
-7.48791e-05
-7.51455e-05
-7.54168e-05
-7.56898e-05
-7.59617e-05
-7.62294e-05
-7.649e-05
-7.67406e-05
-7.69784e-05
-7.72007e-05
-7.74052e-05
-7.75893e-05
-7.77514e-05
-7.78893e-05
-7.79976e-05
-7.80728e-05
-7.81166e-05
-7.81308e-05
-7.81167e-05
-7.80765e-05
-7.80134e-05
-7.79308e-05
-7.78325e-05
-7.77224e-05
-7.7604e-05
-7.74805e-05
-7.73545e-05
-7.72281e-05
-7.5276e-05
-7.53401e-05
-7.54124e-05
-7.55033e-05
-7.56188e-05
-7.57584e-05
-7.59211e-05
-7.61057e-05
-7.63102e-05
-7.65326e-05
-7.67703e-05
-7.70208e-05
-7.72813e-05
-7.7549e-05
-7.78209e-05
-7.80939e-05
-7.83651e-05
-7.86314e-05
-7.88898e-05
-7.91375e-05
-7.93717e-05
-7.95897e-05
-7.97891e-05
-7.99675e-05
-8.01231e-05
-8.02533e-05
-8.03522e-05
-8.04174e-05
-8.0452e-05
-8.04568e-05
-8.04332e-05
-8.03837e-05
-8.03114e-05
-8.022e-05
-8.01137e-05
-7.99965e-05
-7.98723e-05
-7.9744e-05
-7.96142e-05
-7.9485e-05
-7.73145e-05
-7.73686e-05
-7.74369e-05
-7.75264e-05
-7.7641e-05
-7.77801e-05
-7.79425e-05
-7.81266e-05
-7.83305e-05
-7.85519e-05
-7.87883e-05
-7.9037e-05
-7.92953e-05
-7.95601e-05
-7.98285e-05
-8.00973e-05
-8.03637e-05
-8.06245e-05
-8.08768e-05
-8.11178e-05
-8.13447e-05
-8.15549e-05
-8.17461e-05
-8.19158e-05
-8.20622e-05
-8.21821e-05
-8.22696e-05
-8.23241e-05
-8.23484e-05
-8.2343e-05
-8.23093e-05
-8.22498e-05
-8.2168e-05
-8.20676e-05
-8.1953e-05
-8.18285e-05
-8.1698e-05
-8.15646e-05
-8.14305e-05
-8.12978e-05
-7.90465e-05
-7.90899e-05
-7.91531e-05
-7.92399e-05
-7.93522e-05
-7.94889e-05
-7.96488e-05
-7.98301e-05
-8.00308e-05
-8.02485e-05
-8.04807e-05
-8.07246e-05
-8.09773e-05
-8.1236e-05
-8.14975e-05
-8.1759e-05
-8.20173e-05
-8.22696e-05
-8.25128e-05
-8.27444e-05
-8.29616e-05
-8.31618e-05
-8.33426e-05
-8.35021e-05
-8.3638e-05
-8.37455e-05
-8.38206e-05
-8.38645e-05
-8.38788e-05
-8.38633e-05
-8.38199e-05
-8.37513e-05
-8.36608e-05
-8.35522e-05
-8.34299e-05
-8.32987e-05
-8.31624e-05
-8.3024e-05
-8.28855e-05
-8.27489e-05
-8.05142e-05
-8.05462e-05
-8.06033e-05
-8.06863e-05
-8.07949e-05
-8.09278e-05
-8.10835e-05
-8.12601e-05
-8.14555e-05
-8.16673e-05
-8.18928e-05
-8.21294e-05
-8.23741e-05
-8.26241e-05
-8.28765e-05
-8.31281e-05
-8.33761e-05
-8.36176e-05
-8.38499e-05
-8.40702e-05
-8.4276e-05
-8.44648e-05
-8.46343e-05
-8.47826e-05
-8.4907e-05
-8.50018e-05
-8.50648e-05
-8.50988e-05
-8.51039e-05
-8.50795e-05
-8.50278e-05
-8.49517e-05
-8.48546e-05
-8.47401e-05
-8.46117e-05
-8.44743e-05
-8.43323e-05
-8.41889e-05
-8.40462e-05
-8.39059e-05
-8.17518e-05
-8.17729e-05
-8.1823e-05
-8.19008e-05
-8.20045e-05
-8.21323e-05
-8.22825e-05
-8.24529e-05
-8.26413e-05
-8.28454e-05
-8.30624e-05
-8.32898e-05
-8.35248e-05
-8.37643e-05
-8.40056e-05
-8.42457e-05
-8.44819e-05
-8.47113e-05
-8.49314e-05
-8.51394e-05
-8.5333e-05
-8.55098e-05
-8.56676e-05
-8.58043e-05
-8.59166e-05
-8.59992e-05
-8.60516e-05
-8.60769e-05
-8.60748e-05
-8.60446e-05
-8.59873e-05
-8.59056e-05
-8.58032e-05
-8.56838e-05
-8.55509e-05
-8.54088e-05
-8.52621e-05
-8.51142e-05
-8.49675e-05
-8.48235e-05
-8.27878e-05
-8.27991e-05
-8.28419e-05
-8.29134e-05
-8.30109e-05
-8.31325e-05
-8.32759e-05
-8.34389e-05
-8.36191e-05
-8.38141e-05
-8.40214e-05
-8.42383e-05
-8.44621e-05
-8.46899e-05
-8.49191e-05
-8.51466e-05
-8.537e-05
-8.55865e-05
-8.57937e-05
-8.5989e-05
-8.61702e-05
-8.63349e-05
-8.64813e-05
-8.66075e-05
-8.67086e-05
-8.67803e-05
-8.68243e-05
-8.68427e-05
-8.68347e-05
-8.68004e-05
-8.67397e-05
-8.66547e-05
-8.65489e-05
-8.6426e-05
-8.629e-05
-8.61452e-05
-8.59957e-05
-8.58449e-05
-8.56949e-05
-8.55476e-05
-8.36472e-05
-8.36491e-05
-8.36847e-05
-8.37495e-05
-8.38399e-05
-8.3954e-05
-8.40895e-05
-8.4244e-05
-8.4415e-05
-8.46e-05
-8.47966e-05
-8.50021e-05
-8.52139e-05
-8.54294e-05
-8.56458e-05
-8.58605e-05
-8.60709e-05
-8.62745e-05
-8.64689e-05
-8.66518e-05
-8.68209e-05
-8.69742e-05
-8.71098e-05
-8.7226e-05
-8.73166e-05
-8.7379e-05
-8.74166e-05
-8.74299e-05
-8.74178e-05
-8.73802e-05
-8.73176e-05
-8.72318e-05
-8.71255e-05
-8.70023e-05
-8.68661e-05
-8.67209e-05
-8.65706e-05
-8.64182e-05
-8.6266e-05
-8.61154e-05
-8.43513e-05
-8.43444e-05
-8.43728e-05
-8.44306e-05
-8.45134e-05
-8.46193e-05
-8.4746e-05
-8.48911e-05
-8.50521e-05
-8.52266e-05
-8.54119e-05
-8.56056e-05
-8.5805e-05
-8.60077e-05
-8.62112e-05
-8.6413e-05
-8.66106e-05
-8.68015e-05
-8.69834e-05
-8.71543e-05
-8.7312e-05
-8.74545e-05
-8.758e-05
-8.76859e-05
-8.77668e-05
-8.78218e-05
-8.78545e-05
-8.78644e-05
-8.78504e-05
-8.78123e-05
-8.77506e-05
-8.76668e-05
-8.75633e-05
-8.7443e-05
-8.73096e-05
-8.71665e-05
-8.70173e-05
-8.68648e-05
-8.6711e-05
-8.65573e-05
-8.49188e-05
-8.49039e-05
-8.49251e-05
-8.49757e-05
-8.50505e-05
-8.51477e-05
-8.52652e-05
-8.54004e-05
-8.55509e-05
-8.57142e-05
-8.58878e-05
-8.60693e-05
-8.62562e-05
-8.64462e-05
-8.66367e-05
-8.68256e-05
-8.70103e-05
-8.71886e-05
-8.73584e-05
-8.75177e-05
-8.76645e-05
-8.77971e-05
-8.79137e-05
-8.80095e-05
-8.80817e-05
-8.8132e-05
-8.81618e-05
-8.81704e-05
-8.81569e-05
-8.81211e-05
-8.80633e-05
-8.79847e-05
-8.78871e-05
-8.7773e-05
-8.76452e-05
-8.75069e-05
-8.73608e-05
-8.72094e-05
-8.70545e-05
-8.68974e-05
-8.5366e-05
-8.53441e-05
-8.53582e-05
-8.54014e-05
-8.54679e-05
-8.55561e-05
-8.5664e-05
-8.57889e-05
-8.59285e-05
-8.60803e-05
-8.6242e-05
-8.64111e-05
-8.65855e-05
-8.67626e-05
-8.69403e-05
-8.71163e-05
-8.72885e-05
-8.74547e-05
-8.76129e-05
-8.77612e-05
-8.78978e-05
-8.80211e-05
-8.81289e-05
-8.82164e-05
-8.82823e-05
-8.83297e-05
-8.83585e-05
-8.8368e-05
-8.83575e-05
-8.83267e-05
-8.82758e-05
-8.82054e-05
-8.8117e-05
-8.80123e-05
-8.78932e-05
-8.77621e-05
-8.7621e-05
-8.74717e-05
-8.73157e-05
-8.71544e-05
-8.57074e-05
-8.56794e-05
-8.56868e-05
-8.57224e-05
-8.57805e-05
-8.58594e-05
-8.59572e-05
-8.60715e-05
-8.61999e-05
-8.634e-05
-8.64896e-05
-8.66464e-05
-8.68081e-05
-8.69726e-05
-8.71377e-05
-8.73013e-05
-8.74613e-05
-8.76158e-05
-8.7763e-05
-8.7901e-05
-8.80282e-05
-8.81431e-05
-8.82424e-05
-8.83231e-05
-8.83854e-05
-8.84316e-05
-8.84613e-05
-8.84738e-05
-8.84686e-05
-8.84455e-05
-8.84043e-05
-8.83454e-05
-8.82694e-05
-8.81772e-05
-8.80697e-05
-8.7948e-05
-8.78132e-05
-8.76664e-05
-8.75087e-05
-8.73415e-05
-8.59559e-05
-8.59227e-05
-8.59238e-05
-8.5952e-05
-8.60014e-05
-8.60707e-05
-8.61582e-05
-8.62616e-05
-8.63786e-05
-8.65069e-05
-8.66444e-05
-8.67887e-05
-8.6938e-05
-8.709e-05
-8.72428e-05
-8.73943e-05
-8.75427e-05
-8.76862e-05
-8.78229e-05
-8.79514e-05
-8.807e-05
-8.81773e-05
-8.82689e-05
-8.8344e-05
-8.84047e-05
-8.84515e-05
-8.84838e-05
-8.85013e-05
-8.85037e-05
-8.84907e-05
-8.84621e-05
-8.84177e-05
-8.83573e-05
-8.82806e-05
-8.81872e-05
-8.80767e-05
-8.79488e-05
-8.78039e-05
-8.76424e-05
-8.74661e-05
-8.61229e-05
-8.60856e-05
-8.60808e-05
-8.61017e-05
-8.61424e-05
-8.62021e-05
-8.62791e-05
-8.63714e-05
-8.64768e-05
-8.65931e-05
-8.67183e-05
-8.68504e-05
-8.69873e-05
-8.7127e-05
-8.72678e-05
-8.74077e-05
-8.7545e-05
-8.7678e-05
-8.7805e-05
-8.79246e-05
-8.80353e-05
-8.81346e-05
-8.82204e-05
-8.82923e-05
-8.83526e-05
-8.84011e-05
-8.84375e-05
-8.84617e-05
-8.84736e-05
-8.84731e-05
-8.84597e-05
-8.84326e-05
-8.83907e-05
-8.8332e-05
-8.82546e-05
-8.81561e-05
-8.80346e-05
-8.78892e-05
-8.772e-05
-8.7529e-05
-8.62186e-05
-8.61782e-05
-8.61682e-05
-8.6182e-05
-8.62143e-05
-8.62643e-05
-8.63307e-05
-8.64117e-05
-8.65053e-05
-8.66095e-05
-8.67225e-05
-8.68422e-05
-8.69669e-05
-8.70947e-05
-8.72238e-05
-8.73525e-05
-8.74792e-05
-8.76022e-05
-8.772e-05
-8.78313e-05
-8.79346e-05
-8.80269e-05
-8.81075e-05
-8.8178e-05
-8.82389e-05
-8.82901e-05
-8.83318e-05
-8.83641e-05
-8.83873e-05
-8.84012e-05
-8.84052e-05
-8.83978e-05
-8.83766e-05
-8.83379e-05
-8.82773e-05
-8.81902e-05
-8.80725e-05
-8.79219e-05
-8.7738e-05
-8.75233e-05
-8.62524e-05
-8.62099e-05
-8.61952e-05
-8.62024e-05
-8.62264e-05
-8.62668e-05
-8.63226e-05
-8.63922e-05
-8.64739e-05
-8.6566e-05
-8.66666e-05
-8.67741e-05
-8.68867e-05
-8.70027e-05
-8.71204e-05
-8.72383e-05
-8.73548e-05
-8.74683e-05
-8.75775e-05
-8.7681e-05
-8.77767e-05
-8.78633e-05
-8.79407e-05
-8.80103e-05
-8.80723e-05
-8.81269e-05
-8.81746e-05
-8.82159e-05
-8.82515e-05
-8.82813e-05
-8.83044e-05
-8.83186e-05
-8.83196e-05
-8.83016e-05
-8.82571e-05
-8.81786e-05
-8.80592e-05
-8.78948e-05
-8.76847e-05
-8.74324e-05
-8.62326e-05
-8.61888e-05
-8.61701e-05
-8.61712e-05
-8.61873e-05
-8.62183e-05
-8.62635e-05
-8.63217e-05
-8.63915e-05
-8.64713e-05
-8.65597e-05
-8.66549e-05
-8.67555e-05
-8.68599e-05
-8.69666e-05
-8.7074e-05
-8.71806e-05
-8.72851e-05
-8.7386e-05
-8.74818e-05
-8.75708e-05
-8.76525e-05
-8.77277e-05
-8.77968e-05
-8.78601e-05
-8.79182e-05
-8.79722e-05
-8.8023e-05
-8.80715e-05
-8.8118e-05
-8.81612e-05
-8.81976e-05
-8.82212e-05
-8.82229e-05
-8.81916e-05
-8.81155e-05
-8.79847e-05
-8.77928e-05
-8.75388e-05
-8.72278e-05
-8.61666e-05
-8.61223e-05
-8.61004e-05
-8.60959e-05
-8.61045e-05
-8.61264e-05
-8.61612e-05
-8.62082e-05
-8.6266e-05
-8.63336e-05
-8.64095e-05
-8.64925e-05
-8.65812e-05
-8.66742e-05
-8.677e-05
-8.68672e-05
-8.69643e-05
-8.70601e-05
-8.7153e-05
-8.72413e-05
-8.73247e-05
-8.74026e-05
-8.74757e-05
-8.75441e-05
-8.76085e-05
-8.76699e-05
-8.77297e-05
-8.77896e-05
-8.7851e-05
-8.7914e-05
-8.79771e-05
-8.80354e-05
-8.808e-05
-8.80981e-05
-8.80733e-05
-8.79891e-05
-8.78312e-05
-8.75907e-05
-8.72666e-05
-8.68664e-05
-8.60612e-05
-8.60172e-05
-8.59926e-05
-8.59832e-05
-8.59848e-05
-8.5998e-05
-8.60227e-05
-8.60584e-05
-8.61044e-05
-8.61597e-05
-8.62233e-05
-8.62942e-05
-8.6371e-05
-8.64527e-05
-8.65378e-05
-8.6625e-05
-8.67129e-05
-8.68e-05
-8.6885e-05
-8.69672e-05
-8.70456e-05
-8.712e-05
-8.71907e-05
-8.7258e-05
-8.73228e-05
-8.73865e-05
-8.74513e-05
-8.75192e-05
-8.75921e-05
-8.76705e-05
-8.77519e-05
-8.78297e-05
-8.78915e-05
-8.7919e-05
-8.78897e-05
-8.77804e-05
-8.75713e-05
-8.72508e-05
-8.68186e-05
-8.62857e-05
-8.59223e-05
-8.58792e-05
-8.58527e-05
-8.58389e-05
-8.58341e-05
-8.58391e-05
-8.5854e-05
-8.58787e-05
-8.59129e-05
-8.5956e-05
-8.60073e-05
-8.6066e-05
-8.61311e-05
-8.62016e-05
-8.62761e-05
-8.63535e-05
-8.64322e-05
-8.65109e-05
-8.65891e-05
-8.66658e-05
-8.67396e-05
-8.68104e-05
-8.68782e-05
-8.69434e-05
-8.70074e-05
-8.70721e-05
-8.714e-05
-8.72138e-05
-8.7296e-05
-8.7387e-05
-8.74833e-05
-8.75759e-05
-8.76475e-05
-8.76731e-05
-8.76217e-05
-8.74615e-05
-8.71657e-05
-8.67192e-05
-8.61229e-05
-8.53924e-05
-8.57553e-05
-8.57138e-05
-8.56859e-05
-8.56683e-05
-8.56578e-05
-8.56549e-05
-8.56604e-05
-8.56745e-05
-8.56971e-05
-8.5728e-05
-8.57671e-05
-8.58137e-05
-8.58671e-05
-8.59264e-05
-8.59906e-05
-8.60582e-05
-8.61279e-05
-8.61995e-05
-8.6272e-05
-8.63432e-05
-8.64123e-05
-8.64788e-05
-8.65427e-05
-8.66048e-05
-8.66663e-05
-8.67297e-05
-8.67981e-05
-8.68749e-05
-8.69626e-05
-8.70617e-05
-8.71673e-05
-8.72667e-05
-8.73366e-05
-8.73428e-05
-8.72434e-05
-8.69952e-05
-8.65626e-05
-8.59254e-05
-8.50898e-05
-8.40722e-05
-8.5565e-05
-8.55255e-05
-8.54969e-05
-8.54761e-05
-8.54603e-05
-8.54501e-05
-8.54466e-05
-8.54503e-05
-8.54614e-05
-8.54804e-05
-8.55073e-05
-8.55418e-05
-8.55837e-05
-8.5632e-05
-8.56857e-05
-8.57437e-05
-8.58061e-05
-8.58719e-05
-8.59386e-05
-8.60043e-05
-8.60682e-05
-8.61297e-05
-8.61887e-05
-8.62458e-05
-8.63028e-05
-8.63622e-05
-8.64277e-05
-8.6503e-05
-8.65912e-05
-8.66919e-05
-8.67982e-05
-8.68927e-05
-8.69439e-05
-8.69057e-05
-8.67215e-05
-8.63333e-05
-8.5694e-05
-8.47809e-05
-8.35929e-05
-8.21818e-05
-8.53556e-05
-8.53186e-05
-8.52897e-05
-8.52663e-05
-8.52457e-05
-8.52287e-05
-8.52166e-05
-8.52101e-05
-8.52101e-05
-8.52172e-05
-8.5232e-05
-8.52546e-05
-8.52849e-05
-8.53221e-05
-8.53657e-05
-8.54161e-05
-8.54727e-05
-8.55326e-05
-8.55934e-05
-8.56535e-05
-8.57117e-05
-8.57673e-05
-8.58199e-05
-8.58703e-05
-8.592e-05
-8.5972e-05
-8.60303e-05
-8.60989e-05
-8.61806e-05
-8.62742e-05
-8.63696e-05
-8.64429e-05
-8.64521e-05
-8.63353e-05
-8.60164e-05
-8.54158e-05
-8.44704e-05
-8.31597e-05
-8.14799e-05
-7.9521e-05
-8.51312e-05
-8.5097e-05
-8.50682e-05
-8.50425e-05
-8.50175e-05
-8.49942e-05
-8.49737e-05
-8.49574e-05
-8.49464e-05
-8.49418e-05
-8.49446e-05
-8.49553e-05
-8.4974e-05
-8.50005e-05
-8.50365e-05
-8.50813e-05
-8.5132e-05
-8.51858e-05
-8.52406e-05
-8.52949e-05
-8.53469e-05
-8.53955e-05
-8.54403e-05
-8.54816e-05
-8.55212e-05
-8.55619e-05
-8.56079e-05
-8.56633e-05
-8.57304e-05
-8.58058e-05
-8.58752e-05
-8.59064e-05
-8.58433e-05
-8.56038e-05
-8.50852e-05
-8.41809e-05
-8.28152e-05
-8.09285e-05
-7.85643e-05
-7.58441e-05
-8.48952e-05
-8.4864e-05
-8.48357e-05
-8.4808e-05
-8.4779e-05
-8.47495e-05
-8.4721e-05
-8.4695e-05
-8.46732e-05
-8.46571e-05
-8.46479e-05
-8.46466e-05
-8.46544e-05
-8.46738e-05
-8.47044e-05
-8.47431e-05
-8.47875e-05
-8.48353e-05
-8.48844e-05
-8.49326e-05
-8.49778e-05
-8.50185e-05
-8.50538e-05
-8.50838e-05
-8.511e-05
-8.51353e-05
-8.51635e-05
-8.51984e-05
-8.52411e-05
-8.52853e-05
-8.53108e-05
-8.52743e-05
-8.51018e-05
-8.46845e-05
-8.38843e-05
-8.25604e-05
-8.06077e-05
-7.79523e-05
-7.46367e-05
-7.08802e-05
-8.4651e-05
-8.4623e-05
-8.45952e-05
-8.45657e-05
-8.45328e-05
-8.44974e-05
-8.44611e-05
-8.44257e-05
-8.43932e-05
-8.43655e-05
-8.43444e-05
-8.43331e-05
-8.4334e-05
-8.43479e-05
-8.4372e-05
-8.44043e-05
-8.44428e-05
-8.44852e-05
-8.45289e-05
-8.4571e-05
-8.4609e-05
-8.46407e-05
-8.46649e-05
-8.46813e-05
-8.46911e-05
-8.46966e-05
-8.47014e-05
-8.47081e-05
-8.47161e-05
-8.47149e-05
-8.46765e-05
-8.45436e-05
-8.42197e-05
-8.3561e-05
-8.23823e-05
-8.0513e-05
-7.77654e-05
-7.40872e-05
-6.95235e-05
-6.44155e-05
-8.44019e-05
-8.4377e-05
-8.43497e-05
-8.43184e-05
-8.42817e-05
-8.42405e-05
-8.41965e-05
-8.41517e-05
-8.41085e-05
-8.40696e-05
-8.40397e-05
-8.40218e-05
-8.40172e-05
-8.40241e-05
-8.40417e-05
-8.40685e-05
-8.41023e-05
-8.41401e-05
-8.41787e-05
-8.42148e-05
-8.42452e-05
-8.42672e-05
-8.4279e-05
-8.42798e-05
-8.42701e-05
-8.42519e-05
-8.42278e-05
-8.41992e-05
-8.41624e-05
-8.41017e-05
-8.39792e-05
-8.37207e-05
-8.32022e-05
-8.22399e-05
-8.05941e-05
-7.80054e-05
-7.42874e-05
-6.93265e-05
-6.32272e-05
-5.61598e-05
-8.41509e-05
-8.41289e-05
-8.4102e-05
-8.40688e-05
-8.40282e-05
-8.39811e-05
-8.39293e-05
-8.38751e-05
-8.38221e-05
-8.37757e-05
-8.37396e-05
-8.37156e-05
-8.37039e-05
-8.37048e-05
-8.37174e-05
-8.37402e-05
-8.37704e-05
-8.38046e-05
-8.38389e-05
-8.38694e-05
-8.38922e-05
-8.3904e-05
-8.39023e-05
-8.38858e-05
-8.38543e-05
-8.38091e-05
-8.37517e-05
-8.36816e-05
-8.35916e-05
-8.34596e-05
-8.32359e-05
-8.28265e-05
-8.20743e-05
-8.07467e-05
-7.8551e-05
-7.5087e-05
-7.03149e-05
-6.39188e-05
-5.60709e-05
-4.62456e-05
-8.39011e-05
-8.38816e-05
-8.38546e-05
-8.38193e-05
-8.37747e-05
-8.37217e-05
-8.36622e-05
-8.36001e-05
-8.35404e-05
-8.34881e-05
-8.34455e-05
-8.34147e-05
-8.33974e-05
-8.33939e-05
-8.34036e-05
-8.34241e-05
-8.34524e-05
-8.34843e-05
-8.35154e-05
-8.35409e-05
-8.35564e-05
-8.35579e-05
-8.35421e-05
-8.35072e-05
-8.34524e-05
-8.3378e-05
-8.32843e-05
-8.31688e-05
-8.30203e-05
-8.28097e-05
-8.2475e-05
-8.19018e-05
-8.09022e-05
-7.9197e-05
-7.63961e-05
-7.20339e-05
-6.61309e-05
-5.86321e-05
-4.93545e-05
-3.5825e-05
-8.36554e-05
-8.36376e-05
-8.36102e-05
-8.35725e-05
-8.35237e-05
-8.34648e-05
-8.3399e-05
-8.33312e-05
-8.3266e-05
-8.3207e-05
-8.31581e-05
-8.31223e-05
-8.31016e-05
-8.30962e-05
-8.31051e-05
-8.31256e-05
-8.31538e-05
-8.31852e-05
-8.32144e-05
-8.3236e-05
-8.32449e-05
-8.32363e-05
-8.32065e-05
-8.31529e-05
-8.30741e-05
-8.29697e-05
-8.28388e-05
-8.26766e-05
-8.24683e-05
-8.21782e-05
-8.17329e-05
-8.09992e-05
-7.97621e-05
-7.77138e-05
-7.43715e-05
-6.92666e-05
-6.24402e-05
-5.42223e-05
-4.34588e-05
-2.23113e-05
8.47401e-06
8.76954e-06
9.04019e-06
9.28213e-06
9.49185e-06
9.66619e-06
9.80259e-06
9.8991e-06
9.95455e-06
9.97208e-06
9.97208e-06
9.95455e-06
9.8991e-06
9.80259e-06
9.66619e-06
9.49184e-06
9.28213e-06
9.04018e-06
8.76953e-06
8.47401e-06
-1.23673e-05
-1.21041e-05
-1.18569e-05
-1.16293e-05
-1.14248e-05
-1.12466e-05
-1.10974e-05
-1.09797e-05
-1.0896e-05
-1.085e-05
-1.085e-05
-1.0896e-05
-1.09797e-05
-1.10974e-05
-1.12466e-05
-1.14248e-05
-1.16293e-05
-1.18569e-05
-1.21041e-05
-1.23673e-05
-2.66971e-05
-2.64923e-05
-2.63009e-05
-2.61263e-05
-2.59714e-05
-2.58392e-05
-2.57321e-05
-2.56521e-05
-2.56016e-05
-2.55818e-05
-2.55818e-05
-2.56016e-05
-2.56521e-05
-2.57321e-05
-2.58392e-05
-2.59715e-05
-2.61263e-05
-2.63009e-05
-2.64923e-05
-2.66971e-05
-3.77478e-05
-3.75747e-05
-3.74124e-05
-3.72643e-05
-3.71331e-05
-3.70216e-05
-3.69322e-05
-3.6867e-05
-3.68286e-05
-3.68178e-05
-3.68178e-05
-3.68286e-05
-3.6867e-05
-3.69322e-05
-3.70216e-05
-3.71331e-05
-3.72643e-05
-3.74124e-05
-3.75747e-05
-3.77478e-05
-4.71536e-05
-4.69992e-05
-4.68532e-05
-4.67186e-05
-4.65984e-05
-4.64951e-05
-4.64113e-05
-4.6349e-05
-4.6311e-05
-4.62989e-05
-4.62989e-05
-4.6311e-05
-4.6349e-05
-4.64113e-05
-4.64951e-05
-4.65984e-05
-4.67186e-05
-4.68532e-05
-4.69992e-05
-4.71536e-05
-5.49536e-05
-5.48143e-05
-5.46818e-05
-5.45589e-05
-5.44485e-05
-5.43532e-05
-5.42754e-05
-5.42172e-05
-5.41813e-05
-5.41694e-05
-5.41694e-05
-5.41813e-05
-5.42172e-05
-5.42754e-05
-5.43532e-05
-5.44485e-05
-5.45589e-05
-5.46818e-05
-5.48143e-05
-5.49537e-05
-6.13483e-05
-6.12188e-05
-6.10952e-05
-6.098e-05
-6.0876e-05
-6.07858e-05
-6.07119e-05
-6.06563e-05
-6.06216e-05
-6.06094e-05
-6.06094e-05
-6.06216e-05
-6.06563e-05
-6.07119e-05
-6.07858e-05
-6.0876e-05
-6.098e-05
-6.10952e-05
-6.12188e-05
-6.13483e-05
-6.65798e-05
-6.64559e-05
-6.6337e-05
-6.62259e-05
-6.61251e-05
-6.60372e-05
-6.59646e-05
-6.59097e-05
-6.58746e-05
-6.5861e-05
-6.5861e-05
-6.58746e-05
-6.59097e-05
-6.59646e-05
-6.60372e-05
-6.61251e-05
-6.62259e-05
-6.6337e-05
-6.64559e-05
-6.65798e-05
-7.08437e-05
-7.07222e-05
-7.06056e-05
-7.04962e-05
-7.03964e-05
-7.0309e-05
-7.02364e-05
-7.01808e-05
-7.01446e-05
-7.01291e-05
-7.01291e-05
-7.01446e-05
-7.01808e-05
-7.02364e-05
-7.0309e-05
-7.03964e-05
-7.04962e-05
-7.06056e-05
-7.07222e-05
-7.08437e-05
-7.43046e-05
-7.41836e-05
-7.40674e-05
-7.39581e-05
-7.38581e-05
-7.37701e-05
-7.36964e-05
-7.36396e-05
-7.36017e-05
-7.35843e-05
-7.35843e-05
-7.36017e-05
-7.36396e-05
-7.36964e-05
-7.37701e-05
-7.38582e-05
-7.39581e-05
-7.40674e-05
-7.41836e-05
-7.43046e-05
-7.71031e-05
-7.69813e-05
-7.68644e-05
-7.67543e-05
-7.66533e-05
-7.65638e-05
-7.64885e-05
-7.643e-05
-7.63903e-05
-7.63711e-05
-7.63711e-05
-7.63903e-05
-7.643e-05
-7.64885e-05
-7.65638e-05
-7.66533e-05
-7.67543e-05
-7.68644e-05
-7.69813e-05
-7.71031e-05
-7.93579e-05
-7.92345e-05
-7.91161e-05
-7.90045e-05
-7.89019e-05
-7.88106e-05
-7.87333e-05
-7.86728e-05
-7.86312e-05
-7.86103e-05
-7.86103e-05
-7.86312e-05
-7.86728e-05
-7.87333e-05
-7.88106e-05
-7.89019e-05
-7.90046e-05
-7.91161e-05
-7.92345e-05
-7.9358e-05
-8.11681e-05
-8.10424e-05
-8.09221e-05
-8.08085e-05
-8.07038e-05
-8.06103e-05
-8.05307e-05
-8.04678e-05
-8.04242e-05
-8.04018e-05
-8.04018e-05
-8.04242e-05
-8.04678e-05
-8.05307e-05
-8.06103e-05
-8.07038e-05
-8.08085e-05
-8.09221e-05
-8.10424e-05
-8.11681e-05
-8.2616e-05
-8.24877e-05
-8.23648e-05
-8.22487e-05
-8.21413e-05
-8.20449e-05
-8.19625e-05
-8.18969e-05
-8.18509e-05
-8.18268e-05
-8.18268e-05
-8.18509e-05
-8.18969e-05
-8.19625e-05
-8.20449e-05
-8.21413e-05
-8.22487e-05
-8.23648e-05
-8.24877e-05
-8.2616e-05
-8.37695e-05
-8.36378e-05
-8.35116e-05
-8.33922e-05
-8.32812e-05
-8.31813e-05
-8.30953e-05
-8.30264e-05
-8.29775e-05
-8.29511e-05
-8.29511e-05
-8.29775e-05
-8.30264e-05
-8.30953e-05
-8.31813e-05
-8.32812e-05
-8.33922e-05
-8.35116e-05
-8.36378e-05
-8.37695e-05
-8.46835e-05
-8.4548e-05
-8.44179e-05
-8.42942e-05
-8.41788e-05
-8.40743e-05
-8.39838e-05
-8.39108e-05
-8.38583e-05
-8.3829e-05
-8.3829e-05
-8.38583e-05
-8.39108e-05
-8.39838e-05
-8.40743e-05
-8.41788e-05
-8.42942e-05
-8.44179e-05
-8.4548e-05
-8.46835e-05
-8.54037e-05
-8.52639e-05
-8.5129e-05
-8.50001e-05
-8.48791e-05
-8.47689e-05
-8.46728e-05
-8.45946e-05
-8.45376e-05
-8.45044e-05
-8.45044e-05
-8.45376e-05
-8.45946e-05
-8.46728e-05
-8.47689e-05
-8.48791e-05
-8.50001e-05
-8.5129e-05
-8.52639e-05
-8.54037e-05
-8.59674e-05
-8.58226e-05
-8.56818e-05
-8.55464e-05
-8.54185e-05
-8.53013e-05
-8.51983e-05
-8.51139e-05
-8.50512e-05
-8.50133e-05
-8.50133e-05
-8.50512e-05
-8.51139e-05
-8.51983e-05
-8.53013e-05
-8.54185e-05
-8.55464e-05
-8.56818e-05
-8.58226e-05
-8.59674e-05
-8.64046e-05
-8.62537e-05
-8.61058e-05
-8.59624e-05
-8.58262e-05
-8.57005e-05
-8.55894e-05
-8.54975e-05
-8.54282e-05
-8.53847e-05
-8.53847e-05
-8.54282e-05
-8.54975e-05
-8.55894e-05
-8.57005e-05
-8.58262e-05
-8.59624e-05
-8.61058e-05
-8.62537e-05
-8.64046e-05
-8.67391e-05
-8.65809e-05
-8.64241e-05
-8.6271e-05
-8.61247e-05
-8.59889e-05
-8.58683e-05
-8.57678e-05
-8.5691e-05
-8.56414e-05
-8.56414e-05
-8.5691e-05
-8.57678e-05
-8.58683e-05
-8.59889e-05
-8.61247e-05
-8.6271e-05
-8.64241e-05
-8.65809e-05
-8.67391e-05
-8.69891e-05
-8.68213e-05
-8.66535e-05
-8.64884e-05
-8.63299e-05
-8.61824e-05
-8.6051e-05
-8.59413e-05
-8.58567e-05
-8.58009e-05
-8.58009e-05
-8.58567e-05
-8.59413e-05
-8.6051e-05
-8.61824e-05
-8.63299e-05
-8.64884e-05
-8.66535e-05
-8.68214e-05
-8.69891e-05
-8.71665e-05
-8.69864e-05
-8.68042e-05
-8.66241e-05
-8.6451e-05
-8.62906e-05
-8.61479e-05
-8.60289e-05
-8.59369e-05
-8.58754e-05
-8.58754e-05
-8.59369e-05
-8.60289e-05
-8.61479e-05
-8.62906e-05
-8.6451e-05
-8.66241e-05
-8.68042e-05
-8.69864e-05
-8.71666e-05
-8.72774e-05
-8.70801e-05
-8.6879e-05
-8.668e-05
-8.64895e-05
-8.63143e-05
-8.61587e-05
-8.60274e-05
-8.5924e-05
-8.58544e-05
-8.58544e-05
-8.5924e-05
-8.60274e-05
-8.61587e-05
-8.63143e-05
-8.64895e-05
-8.668e-05
-8.6879e-05
-8.70801e-05
-8.72774e-05
-8.73199e-05
-8.70983e-05
-8.68715e-05
-8.66476e-05
-8.64326e-05
-8.62294e-05
-8.60474e-05
-8.58947e-05
-8.57764e-05
-8.56983e-05
-8.56983e-05
-8.57764e-05
-8.58947e-05
-8.60474e-05
-8.62294e-05
-8.64326e-05
-8.66476e-05
-8.68715e-05
-8.70983e-05
-8.73199e-05
-8.72834e-05
-8.70265e-05
-8.67626e-05
-8.64976e-05
-8.62379e-05
-8.59939e-05
-8.57791e-05
-8.56035e-05
-8.54717e-05
-8.5387e-05
-8.5387e-05
-8.54717e-05
-8.56035e-05
-8.57791e-05
-8.59939e-05
-8.62379e-05
-8.64976e-05
-8.67626e-05
-8.70265e-05
-8.72834e-05
-8.71459e-05
-8.68367e-05
-8.6513e-05
-8.61841e-05
-8.58671e-05
-8.55804e-05
-8.53343e-05
-8.51362e-05
-8.49902e-05
-8.48992e-05
-8.48992e-05
-8.49902e-05
-8.51362e-05
-8.53343e-05
-8.55805e-05
-8.58671e-05
-8.61841e-05
-8.6513e-05
-8.68367e-05
-8.71459e-05
-8.68713e-05
-8.64814e-05
-8.60702e-05
-8.56623e-05
-8.52813e-05
-8.49423e-05
-8.46551e-05
-8.44273e-05
-8.4263e-05
-8.41649e-05
-8.41649e-05
-8.4263e-05
-8.44273e-05
-8.46551e-05
-8.49423e-05
-8.52813e-05
-8.56623e-05
-8.60702e-05
-8.64815e-05
-8.68713e-05
-8.64051e-05
-8.58963e-05
-8.53722e-05
-8.48662e-05
-8.44007e-05
-8.39908e-05
-8.36476e-05
-8.33792e-05
-8.319e-05
-8.30823e-05
-8.30823e-05
-8.319e-05
-8.33792e-05
-8.36476e-05
-8.39908e-05
-8.44007e-05
-8.48662e-05
-8.53722e-05
-8.58963e-05
-8.64051e-05
-8.56673e-05
-8.49992e-05
-8.43284e-05
-8.36907e-05
-8.31102e-05
-8.26044e-05
-8.21855e-05
-8.18619e-05
-8.16384e-05
-8.15171e-05
-8.15171e-05
-8.16384e-05
-8.18619e-05
-8.21855e-05
-8.26044e-05
-8.31102e-05
-8.36907e-05
-8.43285e-05
-8.49992e-05
-8.56673e-05
-8.45564e-05
-8.36763e-05
-8.28074e-05
-8.19914e-05
-8.12568e-05
-8.06234e-05
-8.01042e-05
-7.97073e-05
-7.94374e-05
-7.92964e-05
-7.92964e-05
-7.94374e-05
-7.97074e-05
-8.01042e-05
-8.06235e-05
-8.12568e-05
-8.19914e-05
-8.28074e-05
-8.36763e-05
-8.45564e-05
-8.29405e-05
-8.17709e-05
-8.06338e-05
-7.95803e-05
-7.86435e-05
-7.78446e-05
-7.71962e-05
-7.67052e-05
-7.63751e-05
-7.62073e-05
-7.62073e-05
-7.63751e-05
-7.67052e-05
-7.71962e-05
-7.78446e-05
-7.86435e-05
-7.95803e-05
-8.06338e-05
-8.17709e-05
-8.29406e-05
-8.06403e-05
-7.9075e-05
-7.75801e-05
-7.62176e-05
-7.50227e-05
-7.40158e-05
-7.32078e-05
-7.26022e-05
-7.21992e-05
-7.19977e-05
-7.19977e-05
-7.21992e-05
-7.26022e-05
-7.32079e-05
-7.40158e-05
-7.50227e-05
-7.62176e-05
-7.75801e-05
-7.9075e-05
-8.06403e-05
-7.74162e-05
-7.53213e-05
-7.33607e-05
-7.16089e-05
-7.0098e-05
-6.88409e-05
-6.78449e-05
-6.71071e-05
-6.66213e-05
-6.63823e-05
-6.63823e-05
-6.66213e-05
-6.71071e-05
-6.7845e-05
-6.88409e-05
-7.0098e-05
-7.16089e-05
-7.33607e-05
-7.53213e-05
-7.74162e-05
-7.29751e-05
-7.01973e-05
-6.76492e-05
-6.54071e-05
-6.35129e-05
-6.19702e-05
-6.07688e-05
-5.9891e-05
-5.93205e-05
-5.9045e-05
-5.9045e-05
-5.93205e-05
-5.9891e-05
-6.07688e-05
-6.19703e-05
-6.35129e-05
-6.54071e-05
-6.76492e-05
-7.01973e-05
-7.29751e-05
-6.70249e-05