/*--------------------------------*- C++ -*----------------------------------*\
  =========                 |
  \\      /  F ield         | OpenFOAM: The Open Source CFD Toolbox
   \\    /   O peration     | Website:  https://openfoam.org
    \\  /    A nd           | Version:  6
     \\/     M anipulation  |
\*---------------------------------------------------------------------------*/
FoamFile
{
    version     2.0;
    format      ascii;
    class       surfaceScalarField;
    location    "20";
    object      phi;
}
// * * * * * * * * * * * * * * * * * * * * * * * * * * * * * * * * * * * * * //

dimensions      [0 3 -1 0 0 0 0];

internalField   nonuniform List<scalar> 
17340
(
-5.34962e-11
5.34901e-11
-5.47579e-11
1.26176e-12
-5.24424e-11
-2.31552e-12
-5.64565e-11
4.01413e-12
-6.45808e-11
8.12425e-12
-7.49536e-11
1.03729e-11
-8.64655e-11
1.15119e-11
-9.8546e-11
1.20805e-11
-1.10925e-10
1.2379e-11
-1.2348e-10
1.25548e-11
-1.36156e-10
1.26765e-11
-1.4893e-10
1.2774e-11
-1.61788e-10
1.28574e-11
-1.74714e-10
1.29261e-11
-1.87687e-10
1.29728e-11
-2.00673e-10
1.29866e-11
-2.13627e-10
1.29541e-11
-2.26488e-10
1.28608e-11
-2.3918e-10
1.26918e-11
-2.51613e-10
1.24327e-11
-2.63683e-10
1.20702e-11
-2.75276e-10
1.15934e-11
-2.86271e-10
1.09944e-11
-2.9654e-10
1.0269e-11
-3.05957e-10
9.41751e-12
-3.14402e-10
8.44457e-12
-3.2176e-10
7.35805e-12
-3.27926e-10
6.16656e-12
-3.32802e-10
4.87614e-12
-3.36294e-10
3.49163e-12
-3.38333e-10
2.03928e-12
-3.38788e-10
4.54985e-13
-3.37399e-10
-1.38893e-12
-3.33975e-10
-3.42469e-12
-3.2837e-10
-5.60485e-12
-3.20486e-10
-7.8843e-12
-3.10263e-10
-1.02223e-11
-2.97679e-10
-1.25841e-11
-2.82741e-10
-1.49379e-11
-1.72535e-11
-2.65488e-10
5.87584e-12
4.76143e-11
-3.50726e-11
4.22102e-11
-7.70834e-11
3.96953e-11
-1.14015e-10
4.09459e-11
-1.48419e-10
4.25282e-11
-1.81808e-10
4.37623e-11
-2.149e-10
4.4603e-11
-2.47969e-10
4.51499e-11
-2.81097e-10
4.55073e-11
-3.14293e-10
4.57506e-11
-3.47539e-10
4.59224e-11
-3.80802e-10
4.60371e-11
-4.14033e-10
4.60882e-11
-4.4716e-10
4.60535e-11
-4.80088e-10
4.59005e-11
-5.12691e-10
4.55898e-11
-5.44815e-10
4.50781e-11
-5.76276e-10
4.43214e-11
-6.0686e-10
4.32766e-11
-6.36333e-10
4.19049e-11
-6.64435e-10
4.01729e-11
-6.90897e-10
3.80555e-11
-7.15441e-10
3.55375e-11
-7.37787e-10
3.26152e-11
-7.57666e-10
2.92966e-11
-7.74822e-10
2.56011e-11
-7.89019e-10
2.15548e-11
-8.00037e-10
1.71842e-11
-8.07669e-10
1.25085e-11
-8.11718e-10
7.54051e-12
-8.11979e-10
2.30023e-12
-8.08206e-10
-3.31794e-12
-8.00014e-10
-9.58032e-12
-7.87103e-10
-1.63362e-11
-7.6934e-10
-2.33682e-11
-7.46672e-10
-3.05521e-11
-7.19107e-10
-3.77868e-11
-6.86708e-10
-4.49835e-11
-6.49584e-10
-5.2062e-11
-5.89482e-11
-6.07889e-10
-3.71298e-12
5.13273e-11
-4.96301e-11
8.81273e-11
-1.06162e-10
9.62275e-11
-1.61938e-10
9.67215e-11
-2.15529e-10
9.61194e-11
-2.67436e-10
9.5669e-11
-3.18303e-10
9.547e-11
-3.68556e-10
9.54037e-11
-4.18419e-10
9.53698e-11
-4.67978e-10
9.53092e-11
-5.17234e-10
9.51791e-11
-5.66132e-10
9.49352e-11
-6.14569e-10
9.45245e-11
-6.62399e-10
9.38837e-11
-7.09439e-10
9.2941e-11
-7.55469e-10
9.16198e-11
-8.00233e-10
8.98422e-11
-8.43445e-10
8.75326e-11
-8.84789e-10
8.46214e-11
-9.23934e-10
8.10491e-11
-9.60529e-10
7.67684e-11
-9.94222e-10
7.17481e-11
-1.02466e-09
6.59749e-11
-1.0515e-09
5.94549e-11
-1.07442e-09
5.22136e-11
-1.09311e-09
4.42927e-11
-1.1073e-09
3.57431e-11
-1.11673e-09
2.66136e-11
-1.12116e-09
1.69406e-11
-1.12035e-09
6.73042e-12
-1.114e-09
-4.04288e-12
-1.10171e-09
-1.5612e-11
-1.08333e-09
-2.79568e-11
-1.05888e-09
-4.079e-11
-1.02838e-09
-5.38672e-11
-9.9193e-10
-6.70026e-11
-9.49675e-10
-8.00423e-11
-9.01803e-10
-9.28549e-11
-8.4854e-10
-1.05325e-10
-1.1735e-10
-7.90138e-10
-2.42277e-11
7.5555e-11
-7.44579e-11
1.38357e-10
-1.36133e-10
1.57903e-10
-2.01258e-10
1.61846e-10
-2.66583e-10
1.61445e-10
-3.31159e-10
1.60245e-10
-3.9484e-10
1.59151e-10
-4.57694e-10
1.58258e-10
-5.1979e-10
1.57465e-10
-5.81135e-10
1.56655e-10
-6.41673e-10
1.55717e-10
-7.01283e-10
1.54546e-10
-7.59795e-10
1.53036e-10
-8.1699e-10
1.51079e-10
-8.72611e-10
1.48563e-10
-9.26368e-10
1.45376e-10
-9.77937e-10
1.41412e-10
-1.02697e-09
1.3657e-10
-1.07312e-09
1.30765e-10
-1.116e-09
1.23927e-10
-1.15523e-09
1.16006e-10
-1.19046e-09
1.06974e-10
-1.22132e-09
9.68326e-11
-1.24747e-09
8.56053e-11
-1.2686e-09
7.33431e-11
-1.28442e-09
6.01169e-11
-1.29468e-09
4.60062e-11
-1.29915e-09
3.10801e-11
-1.29759e-09
1.53801e-11
-1.28973e-09
-1.12701e-12
-1.27518e-09
-1.86001e-11
-1.25382e-09
-3.6965e-11
-1.22586e-09
-5.59154e-11
-1.1915e-09
-7.51532e-11
-1.15095e-09
-9.44213e-11
-1.10444e-09
-1.13505e-10
-1.05226e-09
-1.32228e-10
-9.94671e-10
-1.50442e-10
-9.31974e-10
-1.68023e-10
-1.84863e-10
-8.64461e-10
-3.16362e-11
1.07191e-10
-8.77796e-11
1.94501e-10
-1.55001e-10
2.25124e-10
-2.26725e-10
2.33569e-10
-2.99723e-10
2.34442e-10
-3.72562e-10
2.33084e-10
-4.44654e-10
2.31244e-10
-5.15763e-10
2.29366e-10
-5.85763e-10
2.27465e-10
-6.54535e-10
2.25427e-10
-7.21928e-10
2.2311e-10
-7.87747e-10
2.20365e-10
-8.51757e-10
2.17046e-10
-9.13684e-10
2.13005e-10
-9.73222e-10
2.08101e-10
-1.03004e-09
2.02198e-10
-1.0838e-09
1.95169e-10
-1.13414e-09
1.86904e-10
-1.18068e-09
1.77311e-10
-1.22308e-09
1.66322e-10
-1.26097e-09
1.53896e-10
-1.29401e-09
1.40021e-10
-1.3219e-09
1.24717e-10
-1.34433e-09
1.08037e-10
-1.36105e-09
9.00602e-11
-1.37182e-09
7.0891e-11
-1.37645e-09
5.06359e-11
-1.37474e-09
2.93728e-11
-1.36647e-09
7.10671e-12
-1.35134e-09
-1.62561e-11
-1.32925e-09
-4.06929e-11
-1.30044e-09
-6.5771e-11
-1.26524e-09
-9.11199e-11
-1.22396e-09
-1.16425e-10
-1.17697e-09
-1.4142e-10
-1.12459e-09
-1.65883e-10
-1.06718e-09
-1.8964e-10
-1.00506e-09
-2.12555e-10
-9.38563e-10
-2.34522e-10
-2.55455e-10
-8.67971e-10
-3.27355e-11
1.39927e-10
-9.24587e-11
2.54224e-10
-1.63662e-10
2.96328e-10
-2.39596e-10
3.09503e-10
-3.17072e-10
3.11918e-10
-3.94541e-10
3.10554e-10
-4.71233e-10
3.07936e-10
-5.4673e-10
3.04863e-10
-6.20756e-10
3.01492e-10
-6.93079e-10
2.9775e-10
-7.6346e-10
2.93491e-10
-8.31639e-10
2.88545e-10
-8.97333e-10
2.8274e-10
-9.60236e-10
2.75908e-10
-1.02002e-09
2.6789e-10
-1.07636e-09
2.58537e-10
-1.12891e-09
2.47719e-10
-1.17734e-09
2.35325e-10
-1.2213e-09
2.21271e-10
-1.26047e-09
2.05501e-10
-1.29457e-09
1.87991e-10
-1.3233e-09
1.68753e-10
-1.34642e-09
1.47834e-10
-1.3637e-09
1.25314e-10
-1.37494e-09
1.01308e-10
-1.38e-09
7.59481e-11
-1.37872e-09
4.93542e-11
-1.37094e-09
2.15937e-11
-1.35647e-09
-7.36438e-12
-1.3352e-09
-3.75288e-11
-1.30737e-09
-6.8519e-11
-1.27333e-09
-9.9808e-11
-1.23347e-09
-1.30981e-10
-1.1882e-09
-1.61699e-10
-1.13794e-09
-1.91683e-10
-1.0831e-09
-2.20717e-10
-1.02409e-09
-2.48647e-10
-9.6128e-10
-2.7537e-10
-8.94977e-10
-3.00825e-10
-3.24975e-10
-8.25457e-10
-3.19669e-11
1.71894e-10
-9.20659e-11
3.14323e-10
-1.64307e-10
3.68569e-10
-2.41573e-10
3.8677e-10
-3.20503e-10
3.90848e-10
-3.99427e-10
3.89478e-10
-4.77452e-10
3.85961e-10
-5.54043e-10
3.81453e-10
-6.28817e-10
3.76266e-10
-7.01455e-10
3.70388e-10
-7.71655e-10
3.63691e-10
-8.39114e-10
3.56004e-10
-9.03523e-10
3.47149e-10
-9.64566e-10
3.36952e-10
-1.02193e-09
3.25252e-10
-1.07529e-09
3.11902e-10
-1.12435e-09
2.9678e-10
-1.16882e-09
2.79787e-10
-1.2084e-09
2.60856e-10
-1.24285e-09
2.3995e-10
-1.27193e-09
2.17072e-10
-1.29544e-09
1.92259e-10
-1.31319e-09
1.65587e-10
-1.32504e-09
1.37168e-10
-1.33088e-09
1.07145e-10
-1.3306e-09
7.56699e-11
-1.32411e-09
4.28561e-11
-1.31124e-09
8.72473e-12
-1.29193e-09
-2.66717e-11
-1.26631e-09
-6.31472e-11
-1.23472e-09
-1.00106e-10
-1.19756e-09
-1.36973e-10
-1.15525e-09
-1.73288e-10
-1.10827e-09
-2.08677e-10
-1.05711e-09
-2.42843e-10
-1.00225e-09
-2.75576e-10
-9.44147e-10
-3.06753e-10
-8.83191e-10
-3.36326e-10
-8.1971e-10
-3.64306e-10
-3.90729e-10
-7.53956e-10
-2.98552e-11
2.01749e-10
-8.76937e-11
3.72162e-10
-1.58221e-10
4.39096e-10
-2.3414e-10
4.62689e-10
-3.11866e-10
4.68574e-10
-3.8957e-10
4.67183e-10
-4.66247e-10
4.62638e-10
-5.41267e-10
4.56473e-10
-6.14175e-10
4.49173e-10
-6.84594e-10
4.40807e-10
-7.52184e-10
4.31281e-10
-8.16622e-10
4.20441e-10
-8.77594e-10
4.08121e-10
-9.34798e-10
3.94156e-10
-9.87941e-10
3.78395e-10
-1.03675e-09
3.6071e-10
-1.08096e-09
3.40993e-10
-1.12034e-09
3.19169e-10
-1.15468e-09
2.95193e-10
-1.18379e-09
2.69056e-10
-1.2075e-09
2.40786e-10
-1.22569e-09
2.1045e-10
-1.23826e-09
1.78151e-10
-1.24512e-09
1.44027e-10
-1.24621e-09
1.08237e-10
-1.24148e-09
7.09367e-11
-1.23084e-09
3.22249e-11
-1.21422e-09
-7.89879e-12
-1.19157e-09
-4.93191e-11
-1.16319e-09
-9.15303e-11
-1.12943e-09
-1.33866e-10
-1.09071e-09
-1.75695e-10
-1.0475e-09
-2.16495e-10
-1.00034e-09
-2.55837e-10
-9.49793e-10
-2.93393e-10
-8.96413e-10
-3.28955e-10
-8.40726e-10
-3.6244e-10
-7.83177e-10
-3.93875e-10
-7.24115e-10
-4.23368e-10
-4.51064e-10
-6.6378e-10
-2.65455e-11
2.28294e-10
-8.00646e-11
4.25681e-10
-1.46619e-10
5.0565e-10
-2.18949e-10
5.35019e-10
-2.93275e-10
5.429e-10
-3.67604e-10
5.41512e-10
-4.40815e-10
5.35849e-10
-5.12201e-10
5.2786e-10
-5.81257e-10
5.18229e-10
-6.47572e-10
5.07123e-10
-7.10791e-10
4.945e-10
-7.7059e-10
4.8024e-10
-8.26668e-10
4.64199e-10
-8.78751e-10
4.46238e-10
-9.26584e-10
4.26229e-10
-9.6994e-10
4.04066e-10
-1.00862e-09
3.79671e-10
-1.04244e-09
3.52994e-10
-1.07127e-09
3.2402e-10
-1.09498e-09
2.92766e-10
-1.11348e-09
2.5929e-10
-1.12671e-09
2.23681e-10
-1.13463e-09
1.86066e-10
-1.1372e-09
1.46599e-10
-1.1344e-09
1.05441e-10
-1.12618e-09
6.27102e-11
-1.11243e-09
1.84745e-11
-1.09316e-09
-2.71695e-11
-1.0684e-09
-7.40787e-11
-1.0384e-09
-1.21526e-10
-1.00354e-09
-1.68727e-10
-9.64257e-10
-2.14978e-10
-9.21078e-10
-2.59674e-10
-8.74603e-10
-3.02311e-10
-8.25486e-10
-3.4251e-10
-7.74388e-10
-3.80053e-10
-7.21926e-10
-4.14903e-10
-6.6862e-10
-4.47181e-10
-6.14863e-10
-4.77125e-10
-5.05026e-10
-5.60901e-10
-2.23966e-11
2.50691e-10
-7.00117e-11
4.73296e-10
-1.3078e-10
5.66418e-10
-1.97703e-10
6.01943e-10
-2.66875e-10
6.12072e-10
-3.36144e-10
6.1078e-10
-4.04274e-10
6.03979e-10
-4.70492e-10
5.94077e-10
-5.34252e-10
5.8199e-10
-5.95131e-10
5.68002e-10
-6.52772e-10
5.52141e-10
-7.06865e-10
5.34332e-10
-7.57135e-10
5.14469e-10
-8.03342e-10
4.92445e-10
-8.45278e-10
4.68164e-10
-8.82765e-10
4.41554e-10
-9.1566e-10
4.12566e-10
-9.43849e-10
3.81183e-10
-9.67247e-10
3.47418e-10
-9.85798e-10
3.11317e-10
-9.99466e-10
2.72958e-10
-1.00824e-09
2.32454e-10
-1.01212e-09
1.89943e-10
-1.0111e-09
1.45584e-10
-1.00519e-09
9.95288e-11
-9.94332e-10
5.18528e-11
-9.78347e-10
2.48995e-12
-9.57171e-10
-4.83454e-11
-9.31005e-10
-1.00245e-10
-9.00077e-10
-1.52453e-10
-8.64733e-10
-2.04072e-10
-8.25435e-10
-2.54276e-10
-7.82763e-10
-3.02347e-10
-7.37394e-10
-3.4768e-10
-6.90089e-10
-3.89816e-10
-6.41629e-10
-4.28513e-10
-5.9275e-10
-4.63781e-10
-5.44074e-10
-4.95857e-10
-4.96058e-10
-5.25141e-10
-5.52106e-10
-4.48978e-10
-1.77652e-11
2.68456e-10
-5.83355e-11
5.13866e-10
-1.1192e-10
6.20003e-10
-1.72015e-10
6.62037e-10
-2.34674e-10
6.74731e-10
-2.97609e-10
6.73714e-10
-3.59474e-10
6.65844e-10
-4.1943e-10
6.54033e-10
-4.76901e-10
6.39461e-10
-5.31456e-10
6.22557e-10
-5.82749e-10
6.03433e-10
-6.3049e-10
5.82073e-10
-6.74437e-10
5.58417e-10
-7.14389e-10
5.32397e-10
-7.50182e-10
5.03957e-10
-7.81687e-10
4.73059e-10
-8.08812e-10
4.39691e-10
-8.31496e-10
4.03867e-10
-8.49705e-10
3.65627e-10
-8.63429e-10
3.2504e-10
-8.72674e-10
2.82204e-10
-8.77459e-10
2.37238e-10
-8.778e-10
1.90284e-10
-8.73699e-10
1.41484e-10
-8.65122e-10
9.0951e-11
-8.51996e-10
3.87274e-11
-8.34291e-10
-1.52156e-11
-8.11859e-10
-7.07771e-11
-7.84783e-10
-1.27322e-10
-7.53307e-10
-1.83928e-10
-7.17796e-10
-2.39583e-10
-6.78748e-10
-2.93324e-10
-6.36798e-10
-3.44296e-10
-5.9271e-10
-3.91768e-10
-5.47355e-10
-4.35171e-10
-5.01655e-10
-4.74213e-10
-4.56482e-10
-5.08955e-10
-4.12573e-10
-5.39766e-10
-3.70473e-10
-5.6724e-10
-5.92073e-10
-3.30506e-10
-1.29444e-11
2.81401e-10
-4.57413e-11
5.46663e-10
-9.11378e-11
6.65399e-10
-1.43344e-10
7.14244e-10
-1.98481e-10
7.29868e-10
-2.54158e-10
7.29392e-10
-3.08929e-10
7.20615e-10
-3.61887e-10
7.06992e-10
-4.12429e-10
6.90002e-10
-4.60118e-10
6.70246e-10
-5.04621e-10
6.47936e-10
-5.45673e-10
6.23126e-10
-5.83065e-10
5.95809e-10
-6.16632e-10
5.65964e-10
-6.4625e-10
5.33575e-10
-6.71834e-10
4.98643e-10
-6.93334e-10
4.61191e-10
-7.10729e-10
4.21262e-10
-7.24024e-10
3.78922e-10
-7.33241e-10
3.34257e-10
-7.38412e-10
2.87375e-10
-7.39571e-10
2.38398e-10
-7.36741e-10
1.87454e-10
-7.29917e-10
1.34659e-10
-7.19033e-10
8.00675e-11
-7.0397e-10
2.36648e-11
-6.84669e-10
-3.45174e-11
-6.61054e-10
-9.43912e-11
-6.332e-10
-1.55176e-10
-6.0131e-10
-2.15818e-10
-5.65748e-10
-2.75145e-10
-5.27047e-10
-3.32025e-10
-4.85905e-10
-3.85439e-10
-4.43163e-10
-4.3451e-10
-3.99808e-10
-4.78526e-10
-3.56905e-10
-5.17117e-10
-3.15466e-10
-5.50394e-10
-2.76355e-10
-5.78876e-10
-2.40211e-10
-6.03384e-10
-6.24857e-10
-2.07427e-10
-8.18033e-12
2.89581e-10
-3.28408e-11
5.71323e-10
-6.93993e-11
7.01957e-10
-1.12978e-10
7.57822e-10
-1.59882e-10
7.76772e-10
-2.07667e-10
7.77177e-10
-2.54797e-10
7.67745e-10
-3.00302e-10
7.52496e-10
-3.43544e-10
7.33244e-10
-3.84081e-10
7.10783e-10
-4.21591e-10
6.85446e-10
-4.55832e-10
6.57367e-10
-4.86624e-10
6.266e-10
-5.13833e-10
5.93173e-10
-5.37369e-10
5.57111e-10
-5.5718e-10
5.18454e-10
-5.73247e-10
4.77258e-10
-5.85579e-10
4.33594e-10
-5.94204e-10
3.87547e-10
-5.99163e-10
3.39216e-10
-6.00499e-10
2.88711e-10
-5.98247e-10
2.36146e-10
-5.92423e-10
1.81629e-10
-5.83009e-10
1.25245e-10
-5.69928e-10
6.69863e-11
-5.52962e-10
6.69864e-12
-5.32009e-10
-5.547e-11
-5.07172e-10
-1.19228e-10
-4.78514e-10
-1.83834e-10
-4.46192e-10
-2.4814e-10
-4.10572e-10
-3.10765e-10
-3.72232e-10
-3.70365e-10
-3.31932e-10
-4.25739e-10
-2.90577e-10
-4.75865e-10
-2.49266e-10
-5.19837e-10
-2.09204e-10
-5.57178e-10
-1.71529e-10
-5.8807e-10
-1.37225e-10
-6.1318e-10
-1.0703e-10
-6.33579e-10
-6.5047e-10
-8.14182e-11
-3.68716e-12
2.93268e-10
-2.01584e-11
5.87795e-10
-4.75366e-11
7.29336e-10
-8.20251e-11
7.92311e-10
-1.20233e-10
8.14979e-10
-1.59723e-10
8.16668e-10
-1.98888e-10
8.0691e-10
-2.36694e-10
7.90302e-10
-2.72467e-10
7.69016e-10
-3.05751e-10
7.44067e-10
-3.36232e-10
7.15926e-10
-3.63684e-10
6.8482e-10
-3.8795e-10
6.50866e-10
-4.0892e-10
6.14143e-10
-4.26531e-10
5.74721e-10
-4.4075e-10
5.32674e-10
-4.51581e-10
4.88089e-10
-4.59049e-10
4.41061e-10
-4.63193e-10
3.91691e-10
-4.6406e-10
3.40083e-10
-4.6169e-10
2.86342e-10
-4.56107e-10
2.30562e-10
-4.47298e-10
1.7282e-10
-4.35189e-10
1.13137e-10
-4.19658e-10
5.14551e-11
-4.00637e-10
-1.23226e-11
-3.78035e-10
-7.80715e-11
-3.51901e-10
-1.45363e-10
-3.22336e-10
-2.13398e-10
-2.89475e-10
-2.81002e-10
-2.5372e-10
-3.46519e-10
-2.15707e-10
-4.08378e-10
-1.76262e-10
-4.65184e-10
-1.36351e-10
-5.15776e-10
-9.71795e-11
-5.59008e-10
-6.00667e-11
-5.94291e-10
-2.62222e-11
-6.21914e-10
3.27511e-12
-6.42677e-10
2.75223e-11
-6.57826e-10
-6.68943e-10
4.59954e-11
3.72844e-13
2.92895e-10
-8.1358e-12
5.96303e-10
-2.62559e-11
7.47456e-10
-5.14246e-11
8.17479e-10
-8.06766e-11
8.44231e-10
-1.1165e-10
8.47642e-10
-1.42693e-10
8.37953e-10
-1.72711e-10
8.2032e-10
-2.00988e-10
7.97293e-10
-2.27048e-10
7.70128e-10
-2.50574e-10
7.39453e-10
-2.71352e-10
7.05597e-10
-2.89236e-10
6.68751e-10
-3.04138e-10
6.29045e-10
-3.16006e-10
5.86589e-10
-3.24821e-10
5.41489e-10
-3.30595e-10
4.93863e-10
-3.3336e-10
4.43826e-10
-3.33158e-10
3.91489e-10
-3.30032e-10
3.36957e-10
-3.24011e-10
2.80322e-10
-3.15105e-10
2.21656e-10
-3.03277e-10
1.60992e-10
-2.88403e-10
9.82625e-11
-2.70253e-10
3.33058e-11
-2.48887e-10
-3.3689e-11
-2.24344e-10
-1.02615e-10
-1.96657e-10
-1.7305e-10
-1.65977e-10
-2.44078e-10
-1.32418e-10
-3.14561e-10
-9.64509e-11
-3.82487e-10
-5.87423e-11
-4.46087e-10
-2.01145e-11
-5.03812e-10
1.83041e-11
-5.54194e-10
5.51653e-11
-5.95869e-10
8.9145e-11
-6.28271e-10
1.18986e-10
-6.51756e-10
1.43531e-10
-6.67222e-10
1.61857e-10
-6.76151e-10
-6.80491e-10
1.73405e-10
3.99202e-12
2.88903e-10
2.89539e-12
5.974e-10
-6.16485e-12
7.56516e-10
-2.19727e-11
8.33287e-10
-4.21712e-11
8.6443e-10
-6.4545e-11
8.70015e-10
-8.7429e-11
8.60837e-10
-1.09679e-10
8.4257e-10
-1.30532e-10
8.18146e-10
-1.49482e-10
7.89078e-10
-1.66198e-10
7.56169e-10
-1.80469e-10
7.19868e-10
-1.92157e-10
6.80439e-10
-2.01181e-10
6.38069e-10
-2.07497e-10
5.92905e-10
-2.11083e-10
5.45075e-10
-2.11954e-10
4.94734e-10
-2.10142e-10
4.42015e-10
-2.05684e-10
3.87031e-10
-1.9861e-10
3.29882e-10
-1.88934e-10
2.70646e-10
-1.76645e-10
2.09368e-10
-1.61695e-10
1.46041e-10
-1.43962e-10
8.05293e-11
-1.2304e-10
1.23846e-11
-9.90599e-11
-5.76694e-11
-7.2263e-11
-1.29412e-10
-4.27375e-11
-2.02576e-10
-1.06042e-11
-2.76211e-10
2.37961e-11
-3.48961e-10
5.99575e-11
-4.18648e-10
9.72488e-11
-4.83378e-10
1.34793e-10
-5.41356e-10
1.71407e-10
-5.90808e-10
2.05854e-10
-6.30316e-10
2.36822e-10
-6.59239e-10
2.62896e-10
-6.77829e-10
2.82792e-10
-6.87118e-10
2.95486e-10
-6.88846e-10
-6.85303e-10
3.00299e-10
7.17837e-12
2.81725e-10
1.28066e-11
5.91772e-10
1.23062e-11
7.57016e-10
5.65117e-12
8.39942e-10
-5.53487e-12
8.75616e-10
-1.9323e-11
8.83803e-10
-3.40926e-11
8.75607e-10
-4.86628e-11
8.5714e-10
-6.22223e-11
8.31705e-10
-7.42244e-11
8.0108e-10
-8.4315e-11
7.6626e-10
-9.22758e-11
7.27829e-10
-9.79656e-11
6.86129e-10
-1.01302e-10
6.41405e-10
-1.02243e-10
5.93846e-10
-1.00754e-10
5.43585e-10
-9.68489e-11
4.90829e-10
-9.05544e-11
4.3572e-10
-8.18931e-11
3.7837e-10
-7.0878e-11
3.18867e-10
-5.75e-11
2.57268e-10
-4.17097e-11
1.93577e-10
-2.33859e-11
1.27717e-10
-2.33513e-12
5.94786e-11
2.15412e-11
-1.14917e-11
4.80772e-11
-8.42054e-11
7.70876e-11
-1.58422e-10
1.08401e-10
-2.33889e-10
1.41788e-10
-3.09598e-10
1.76797e-10
-3.8397e-10
2.13086e-10
-4.54937e-10
2.50063e-10
-5.20355e-10
2.86786e-10
-5.78079e-10
3.22058e-10
-6.2608e-10
3.54539e-10
-6.62797e-10
3.82777e-10
-6.87477e-10
4.05271e-10
-7.00323e-10
4.20645e-10
-7.02492e-10
4.2779e-10
-6.95991e-10
-6.8346e-10
4.25946e-10
9.88127e-12
2.71844e-10
2.15733e-11
5.80079e-10
2.89532e-11
7.49637e-10
3.09617e-11
8.37934e-10
2.85476e-11
8.7803e-10
2.32317e-11
8.89119e-10
1.64832e-11
8.82355e-10
9.47766e-12
8.64145e-10
3.06524e-12
8.38118e-10
-2.16871e-12
8.06314e-10
-5.83588e-12
7.69927e-10
-7.68836e-12
7.29681e-10
-7.57102e-12
6.86012e-10
-5.38963e-12
6.39224e-10
-1.08972e-12
5.89546e-10
5.35262e-12
5.37143e-10
1.39364e-11
4.82245e-10
2.46516e-11
4.25005e-10
3.74898e-11
3.65531e-10
5.24542e-11
3.03903e-10
6.9572e-11
2.4015e-10
8.89128e-11
1.74236e-10
1.10629e-10
1.06001e-10
1.3493e-10
3.51778e-11
1.61566e-10
-3.81275e-11
1.90423e-10
-1.13063e-10
2.21465e-10
-1.89464e-10
2.54474e-10
-2.66898e-10
2.89171e-10
-3.44295e-10
3.25181e-10
-4.1998e-10
3.62075e-10
-4.91831e-10
3.99187e-10
-5.57467e-10
4.35531e-10
-6.14423e-10
4.69845e-10
-6.60395e-10
5.00666e-10
-6.93618e-10
5.264e-10
-7.13212e-10
5.45449e-10
-7.19372e-10
5.56361e-10
-7.13404e-10
5.57969e-10
-6.97599e-10
-6.74972e-10
5.49481e-10
1.21017e-11
2.59742e-10
2.91426e-11
5.63039e-10
4.37019e-11
7.35077e-10
5.37828e-11
8.27853e-10
5.96881e-11
8.72125e-10
6.25445e-11
8.86263e-10
6.36208e-11
8.81279e-10
6.40256e-11
8.63741e-10
6.46126e-11
8.37531e-10
6.59879e-11
8.04938e-10
6.85709e-11
7.67344e-10
7.26487e-11
7.25603e-10
7.8401e-11
6.80259e-10
8.59394e-11
6.31685e-10
9.53272e-11
5.80158e-10
1.06573e-10
5.25897e-10
1.19697e-10
4.69122e-10
1.34706e-10
4.09996e-10
1.51603e-10
3.48634e-10
1.70403e-10
2.85103e-10
1.91137e-10
2.19415e-10
2.13872e-10
1.51502e-10
2.38718e-10
8.11551e-11
2.65945e-10
7.95082e-12
2.95328e-10
-6.75107e-11
3.26641e-10
-1.44377e-10
3.59807e-10
-2.22629e-10
3.94657e-10
-3.01748e-10
4.30933e-10
-3.80572e-10
4.68282e-10
-4.57329e-10
5.06193e-10
-5.29741e-10
5.43895e-10
-5.95169e-10
5.80301e-10
-6.50829e-10
6.14026e-10
-6.94121e-10
6.43463e-10
-7.23054e-10
6.6688e-10
-7.36629e-10
6.82578e-10
-7.35069e-10
6.8904e-10
-7.19867e-10
6.85077e-10
-6.93636e-10
-6.59802e-10
6.69908e-10
1.386e-11
2.45882e-10
3.55051e-11
5.41393e-10
5.64958e-11
7.14087e-10
7.39937e-11
8.10355e-10
8.76914e-11
8.58427e-10
9.83209e-11
8.75633e-10
1.06922e-10
8.72677e-10
1.14498e-10
8.56165e-10
1.21871e-10
8.30158e-10
1.29659e-10
7.9715e-10
1.38308e-10
7.58696e-10
1.48127e-10
7.15784e-10
1.59321e-10
6.69065e-10
1.72018e-10
6.18988e-10
1.86291e-10
5.65885e-10
2.02168e-10
5.1002e-10
2.19672e-10
4.51617e-10
2.38821e-10
3.90847e-10
2.59629e-10
3.27826e-10
2.82121e-10
2.62612e-10
3.06346e-10
1.95191e-10
3.32414e-10
1.25434e-10
3.60501e-10
5.30682e-11
3.90598e-10
-2.21459e-11
4.22436e-10
-9.93489e-11
4.56065e-10
-1.78006e-10
4.91394e-10
-2.57958e-10
5.2825e-10
-3.38604e-10
5.66378e-10
-4.187e-10
6.05394e-10
-4.96345e-10
6.44705e-10
-5.69052e-10
6.83414e-10
-6.33879e-10
7.20284e-10
-6.87699e-10
7.53762e-10
-7.27598e-10
7.82062e-10
-7.51354e-10
8.03305e-10
-7.57872e-10
8.15688e-10
-7.47452e-10
8.17652e-10
-7.21831e-10
8.0802e-10
-6.84004e-10
-6.37855e-10
7.86073e-10
1.51834e-11
2.30698e-10
4.06805e-11
5.15896e-10
6.7312e-11
6.87455e-10
9.15121e-11
7.86155e-10
1.12406e-10
8.37533e-10
1.3033e-10
8.57709e-10
1.46078e-10
8.56929e-10
1.60517e-10
8.41727e-10
1.74414e-10
8.1626e-10
1.8838e-10
7.83183e-10
2.02873e-10
7.44203e-10
2.18219e-10
7.00438e-10
2.34644e-10
6.52641e-10
2.52291e-10
6.01341e-10
2.71248e-10
5.46929e-10
2.9156e-10
4.89708e-10
3.13261e-10
4.29917e-10
3.36373e-10
3.67735e-10
3.6092e-10
3.03279e-10
3.86937e-10
2.36595e-10
4.14484e-10
1.67643e-10
4.43689e-10
9.62291e-11
4.74807e-10
2.19503e-11
5.07671e-10
-5.50098e-11
5.42042e-10
-1.33719e-10
5.78025e-10
-2.13989e-10
6.15601e-10
-2.95534e-10
6.54631e-10
-3.77634e-10
6.94857e-10
-4.58926e-10
7.35852e-10
-5.3734e-10
7.76919e-10
-6.10118e-10
8.17009e-10
-6.73969e-10
8.54695e-10
-7.25384e-10
8.88206e-10
-7.6111e-10
9.15551e-10
-7.78698e-10
9.34681e-10
-7.77003e-10
9.43695e-10
-7.56466e-10
9.41015e-10
-7.19151e-10
9.25522e-10
-6.6851e-10
-6.0895e-10
8.96616e-10
1.61037e-11
2.14595e-10
4.47068e-11
4.87293e-10
7.61605e-11
6.56001e-10
1.06298e-10
7.56018e-10
1.33726e-10
8.10105e-10
1.58397e-10
8.33037e-10
1.80845e-10
8.34481e-10
2.01781e-10
8.2079e-10
2.21894e-10
7.96147e-10
2.41767e-10
7.63311e-10
2.61855e-10
7.24116e-10
2.82495e-10
6.79797e-10
3.03926e-10
6.3121e-10
3.26307e-10
5.7896e-10
3.4974e-10
5.23496e-10
3.74286e-10
4.65162e-10
3.99985e-10
4.04217e-10
4.26871e-10
3.4085e-10
4.54976e-10
2.75174e-10
4.84351e-10
2.07219e-10
5.15094e-10
1.36901e-10
5.47363e-10
6.39593e-11
5.81361e-10
-1.20468e-11
6.168e-10
-9.04493e-11
6.53653e-10
-1.70572e-10
6.92019e-10
-2.52355e-10
7.3193e-10
-3.35446e-10
7.7329e-10
-4.18993e-10
8.1584e-10
-5.01477e-10
8.59093e-10
-5.80593e-10
9.02227e-10
-6.53252e-10
9.4401e-10
-7.15753e-10
9.8278e-10
-7.64155e-10
1.01651e-09
-7.94841e-10
1.04297e-09
-8.05155e-10
1.05992e-09
-7.93955e-10
1.06537e-09
-7.61917e-10
1.05776e-09
-7.11536e-10
1.03607e-09
-6.46821e-10
-5.72777e-10
9.99895e-10
1.66564e-11
1.97938e-10
4.76387e-11
4.56311e-10
8.30822e-11
6.20558e-10
1.18351e-10
7.20749e-10
1.51596e-10
7.76861e-10
1.82403e-10
8.02231e-10
2.11042e-10
8.05842e-10
2.38054e-10
7.93778e-10
2.64029e-10
7.70172e-10
2.89502e-10
7.37838e-10
3.14911e-10
6.98707e-10
3.40594e-10
6.54115e-10
3.66796e-10
6.05007e-10
3.93689e-10
5.52067e-10
4.21385e-10
4.958e-10
4.49956e-10
4.36591e-10
4.79453e-10
3.7472e-10
5.09917e-10
3.10385e-10
5.41396e-10
2.43695e-10
5.73965e-10
1.74651e-10
6.07772e-10
1.03094e-10
6.43099e-10
2.86316e-11
6.79835e-10
-4.8782e-11
7.177e-10
-1.28314e-10
7.56932e-10
-2.09805e-10
7.97682e-10
-2.93104e-10
8.40008e-10
-3.77772e-10
8.83841e-10
-4.62826e-10
9.28911e-10
-5.46547e-10
9.74653e-10
-6.26335e-10
1.0201e-09
-6.98697e-10
1.06379e-09
-7.59449e-10
1.1038e-09
-8.04163e-10
1.1378e-09
-8.28836e-10
1.16327e-09
-8.30629e-10
1.1778e-09
-8.0848e-10
1.17929e-09
-7.63415e-10
1.16625e-09
-6.98493e-10
1.13783e-09
-6.18405e-10
-5.28847e-10
1.0939e-09
1.68797e-11
1.81059e-10
4.95455e-11
4.23645e-10
8.81464e-11
5.81957e-10
1.27714e-10
6.81181e-10
1.66011e-10
7.38564e-10
2.02286e-10
7.65956e-10
2.36549e-10
7.71579e-10
2.6916e-10
7.61167e-10
3.00595e-10
7.38737e-10
3.31324e-10
7.07109e-10
3.61754e-10
6.68277e-10
3.9221e-10
6.23658e-10
4.22938e-10
5.74279e-10
4.54113e-10
5.20892e-10
4.85854e-10
4.64059e-10
5.18242e-10
4.04202e-10
5.51336e-10
3.41626e-10
5.85188e-10
2.76534e-10
6.19864e-10
2.09019e-10
6.55473e-10
1.39042e-10
6.92203e-10
6.63633e-11
7.30333e-10
-9.49833e-12
7.69575e-10
-8.80241e-11
8.09912e-10
-1.68651e-10
8.51564e-10
-2.51457e-10
8.94751e-10
-3.36291e-10
9.39585e-10
-4.22607e-10
9.86023e-10
-5.09264e-10
1.03377e-09
-5.94294e-10
1.08217e-09
-6.74732e-10
1.13007e-09
-7.46598e-10
1.17576e-09
-8.05145e-10
1.217e-09
-8.45398e-10
1.25111e-09
-8.62945e-10
1.27528e-09
-8.54801e-10
1.28688e-09
-8.20081e-10
1.28377e-09
-7.60306e-10
1.26454e-09
-6.7926e-10
1.2286e-09
-5.82463e-10
-4.76408e-10
1.17616e-09
1.68137e-11
1.64245e-10
5.05077e-11
3.89951e-10
9.14469e-11
5.41018e-10
1.34465e-10
6.38163e-10
1.77012e-10
6.96016e-10
2.18036e-10
7.24932e-10
2.573e-10
7.32315e-10
2.9498e-10
7.23487e-10
3.31425e-10
7.02291e-10
3.67028e-10
6.71507e-10
4.02148e-10
6.33156e-10
4.37088e-10
5.88718e-10
4.72082e-10
5.39285e-10
5.07302e-10
4.85672e-10
5.4287e-10
4.28492e-10
5.7887e-10
3.68202e-10
6.15369e-10
3.05127e-10
6.52434e-10
2.39469e-10
6.90158e-10
1.71295e-10
7.28709e-10
1.00491e-10
7.68414e-10
2.66583e-11
8.09188e-10
-5.02721e-11
8.50763e-10
-1.29599e-10
8.93447e-10
-2.11335e-10
9.37506e-10
-2.95516e-10
9.83174e-10
-3.8196e-10
1.0306e-09
-4.70028e-10
1.07973e-09
-5.58399e-10
1.13024e-09
-6.44804e-10
1.18135e-09
-7.25839e-10
1.2317e-09
-7.96952e-10
1.2793e-09
-8.52745e-10
1.32153e-09
-8.87629e-10
1.35535e-09
-8.96764e-10
1.37762e-09
-8.77067e-10
1.38549e-09
-8.27951e-10
1.37679e-09
-7.51608e-10
1.35026e-09
-6.52734e-10
1.30565e-09
-5.37849e-10
-4.14344e-10
1.24358e-09
1.64986e-11
1.47746e-10
5.06141e-11
3.55836e-10
9.30976e-11
4.98534e-10
1.38714e-10
5.92547e-10
1.84684e-10
6.50046e-10
2.29695e-10
6.7992e-10
2.73286e-10
6.88724e-10
3.15451e-10
6.81322e-10
3.5641e-10
6.61333e-10
3.96461e-10
6.31455e-10
4.35909e-10
5.93709e-10
4.75019e-10
5.49608e-10
5.14006e-10
5.00298e-10
5.5303e-10
4.46648e-10
5.92208e-10
3.89314e-10
6.31626e-10
3.28784e-10
6.71358e-10
2.65395e-10
7.1149e-10
1.99337e-10
7.52159e-10
1.30626e-10
7.93596e-10
5.90543e-11
8.36058e-10
-1.58044e-11
8.79252e-10
-9.34658e-11
9.23257e-10
-1.73603e-10
9.68362e-10
-2.5644e-10
1.01489e-09
-3.42041e-10
1.0631e-09
-4.30173e-10
1.11316e-09
-5.20088e-10
1.16501e-09
-6.1025e-10
1.21825e-09
-6.98042e-10
1.27195e-09
-7.79545e-10
1.32455e-09
-8.49547e-10
1.37371e-09
-9.01904e-10
1.41642e-09
-9.30339e-10
1.44922e-09
-9.2957e-10
1.46863e-09
-8.96471e-10
1.47158e-09
-8.30906e-10
1.45591e-09
-7.35934e-10
1.42056e-09
-6.1739e-10
1.36568e-09
-4.82968e-10
-3.41043e-10
1.29238e-09
1.59734e-11
1.31773e-10
4.99577e-11
3.21851e-10
9.32273e-11
4.55265e-10
1.40599e-10
5.45175e-10
1.89145e-10
6.015e-10
2.37351e-10
6.31715e-10
2.8455e-10
6.41525e-10
3.30569e-10
6.35303e-10
3.75495e-10
6.16407e-10
4.19531e-10
5.8742e-10
4.62912e-10
5.50328e-10
5.05857e-10
5.06662e-10
5.48552e-10
4.57603e-10
5.91138e-10
4.04062e-10
6.33722e-10
3.4673e-10
6.76389e-10
2.86116e-10
7.19224e-10
2.2256e-10
7.62338e-10
1.56223e-10
8.05919e-10
8.70456e-11
8.5034e-10
1.46328e-11
8.95458e-10
-6.09222e-11
9.41071e-10
-1.39079e-10
9.8751e-10
-2.20042e-10
1.0351e-09
-3.04025e-10
1.08415e-09
-3.91091e-10
1.13493e-09
-4.8096e-10
1.1876e-09
-5.72756e-10
1.24206e-09
-6.64704e-10
1.2978e-09
-7.53786e-10
1.35376e-09
-8.35504e-10
1.4081e-09
-9.03891e-10
1.45816e-09
-9.5196e-10
1.50048e-09
-9.72665e-10
1.53117e-09
-9.60256e-10
1.54635e-09
-9.11645e-10
1.54275e-09
-8.27307e-10
1.51823e-09
-7.11416e-10
1.47202e-09
-5.71185e-10
1.40471e-09
-4.1565e-10
-2.54196e-10
1.31786e-09
1.52747e-11
1.16498e-10
4.86316e-11
2.88494e-10
9.19732e-11
4.11923e-10
1.40276e-10
4.96873e-10
1.9055e-10
5.51225e-10
2.4113e-10
5.81135e-10
2.91184e-10
5.91471e-10
3.40385e-10
5.86102e-10
3.88692e-10
5.68099e-10
4.36211e-10
5.39901e-10
4.83102e-10
5.03437e-10
5.29533e-10
4.60232e-10
5.75648e-10
4.11488e-10
6.21567e-10
3.58143e-10
6.67384e-10
3.00913e-10
7.13184e-10
2.40316e-10
7.59071e-10
1.76673e-10
8.05208e-10
1.10087e-10
8.51888e-10
4.03653e-11
8.99237e-10
-3.27156e-11
9.46925e-10
-1.08611e-10
9.95147e-10
-1.87301e-10
1.04419e-09
-2.69087e-10
1.09438e-09
-3.54211e-10
1.14601e-09
-4.42721e-10
1.19932e-09
-5.34275e-10
1.25443e-09
-6.27861e-10
1.31116e-09
-7.21437e-10
1.36892e-09
-8.11549e-10
1.42648e-09
-8.93055e-10
1.48173e-09
-9.59143e-10
1.53164e-09
-1.00187e-09
1.57231e-09
-1.01333e-09
1.59933e-09
-9.87282e-10
1.60843e-09
-9.2074e-10
1.59612e-09
-8.14997e-10
1.56031e-09
-6.75607e-10
1.50054e-09
-5.11421e-10
1.41782e-09
-3.32924e-10
-1.50317e-10
1.31394e-09
1.44353e-11
1.02063e-10
4.67249e-11
2.56205e-10
8.94742e-11
3.69174e-10
1.37913e-10
4.48434e-10
1.89073e-10
5.00066e-10
2.41197e-10
5.29011e-10
2.93327e-10
5.39341e-10
3.45006e-10
5.34422e-10
3.9608e-10
5.17026e-10
4.46556e-10
4.89424e-10
4.96522e-10
4.53471e-10
5.46086e-10
4.10668e-10
5.95354e-10
3.6222e-10
6.44416e-10
3.09081e-10
6.93355e-10
2.51974e-10
7.42264e-10
1.91407e-10
7.91277e-10
1.2766e-10
8.40615e-10
6.07485e-11
8.90598e-10
-9.6174e-12
9.40908e-10
-8.30256e-11
9.91475e-10
-1.59178e-10
1.04255e-09
-2.38379e-10
1.09441e-09
-3.2094e-10
1.1473e-09
-4.07103e-10
1.20147e-09
-4.96897e-10
1.25711e-09
-5.89915e-10
1.31425e-09
-6.85e-10
1.37265e-09
-7.79834e-10
1.4316e-09
-8.705e-10
1.4897e-09
-9.51156e-10
1.54461e-09
-1.01405e-09
1.59291e-09
-1.05017e-09
1.63019e-09
-1.05062e-09
1.65153e-09
-1.00862e-09
1.65216e-09
-9.21372e-10
1.62836e-09
-7.91197e-10
1.57808e-09
-6.25324e-10
1.50114e-09
-4.34487e-10
1.39879e-09
-2.30568e-10
-2.3443e-11
1.27191e-09
1.34831e-11
8.85799e-11
4.4319e-11
2.25369e-10
8.58645e-11
3.27628e-10
1.33685e-10
4.00614e-10
1.84907e-10
4.48844e-10
2.37749e-10
4.76169e-10
2.91169e-10
4.85921e-10
3.44612e-10
4.8098e-10
3.97824e-10
4.63813e-10
4.5073e-10
4.36518e-10
5.03345e-10
4.00856e-10
5.55723e-10
3.5829e-10
6.07929e-10
3.10015e-10
6.6003e-10
2.5698e-10
7.12104e-10
1.999e-10
7.64264e-10
1.39247e-10
8.16699e-10
7.52243e-11
8.69755e-10
7.6918e-12
9.23207e-10
-6.30694e-11
9.76743e-10
-1.36561e-10
1.03055e-09
-2.12982e-10
1.08478e-09
-2.92616e-10
1.13962e-09
-3.75778e-10
1.19523e-09
-4.62708e-10
1.25174e-09
-5.53413e-10
1.30925e-09
-6.47427e-10
1.36771e-09
-7.43456e-10
1.42679e-09