/*--------------------------------*- C++ -*----------------------------------*\
  =========                 |
  \\      /  F ield         | OpenFOAM: The Open Source CFD Toolbox
   \\    /   O peration     | Website:  https://openfoam.org
    \\  /    A nd           | Version:  6
     \\/     M anipulation  |
\*---------------------------------------------------------------------------*/
FoamFile
{
    version     2.0;
    format      ascii;
    class       volScalarField;
    location    "20";
    object      phii;
}
// * * * * * * * * * * * * * * * * * * * * * * * * * * * * * * * * * * * * * //

dimensions      [1 2 -3 0 0 -1 0];

internalField   nonuniform List<scalar> 
8800
(
12.4977
12.5042
12.5142
12.5271
12.5426
12.5609
12.5818
12.6053
12.6315
12.6601
12.6911
12.7246
12.7602
12.798
12.8378
12.8796
12.9231
12.9683
13.015
13.0632
13.1126
13.1631
13.2145
13.2668
13.3196
13.3729
13.4263
13.4798
13.5332
13.5861
13.6385
13.69
13.7406
13.7901
13.8381
13.8846
13.9293
13.972
14.0124
14.0504
36.1442
36.1605
36.1884
36.2257
36.2714
36.3252
36.3869
36.4566
36.5338
36.6185
36.7105
36.8094
36.915
37.027
37.1451
37.2689
37.3981
37.5324
37.6712
37.8143
37.9611
38.1113
38.2643
38.4198
38.577
38.7356
38.8949
39.0543
39.2132
39.3711
39.5273
39.6812
39.8322
39.9798
40.1234
40.2622
40.3957
40.5231
40.6439
40.7572
58.5979
58.624
58.669
58.7296
58.8045
58.8929
58.9946
59.1093
59.2367
59.3764
59.5281
59.6914
59.8658
60.0508
60.246
60.4507
60.6644
60.8865
61.1163
61.3532
61.5964
61.8453
62.099
62.3568
62.6177
62.8808
63.1453
63.41
63.6741
63.9365
64.1961
64.452
64.7034
64.9491
65.1882
65.4195
65.6419
65.8542
66.0554
66.2444
80.0034
80.0394
80.1013
80.1849
80.2882
80.4105
80.5513
80.7102
80.8868
81.0805
81.291
81.5177
81.7599
82.0169
82.2882
82.5729
82.8702
83.1793
83.4993
83.8293
84.1684
84.5154
84.8694
85.2291
85.5934
85.961
86.3305
86.7007
87.07
87.4371
87.8007
88.1593
88.5117
88.8564
89.1919
89.5165
89.8288
90.127
90.4097
90.6751
100.491
100.537
100.616
100.722
100.854
101.009
101.188
101.391
101.616
101.863
102.131
102.421
102.73
103.058
103.405
103.769
104.149
104.545
104.955
105.378
105.813
106.258
106.712
107.174
107.642
108.115
108.59
109.067
109.542
110.015
110.484
110.947
111.403
111.848
112.282
112.702
113.106
113.492
113.857
114.201
120.177
120.233
120.329
120.457
120.616
120.805
121.022
121.267
121.54
121.84
122.166
122.517
122.893
123.292
123.714
124.158
124.621
125.103
125.603
126.12
126.651
127.195
127.751
128.316
128.889
129.468
130.051
130.636
131.22
131.801
132.378
132.948
133.509
134.057
134.592
135.11
135.609
136.085
136.537
136.962
139.162
139.228
139.341
139.492
139.678
139.899
140.154
140.442
140.762
141.115
141.498
141.911
142.353
142.824
143.321
143.844
144.391
144.961
145.552
146.162
146.791
147.435
148.094
148.765
149.446
150.134
150.827
151.522
152.218
152.911
153.599
154.28
154.95
155.606
156.246
156.865
157.462
158.033
158.574
159.083
157.535
157.611
157.74
157.913
158.127
158.381
158.673
159.003
159.371
159.776
160.216
160.692
161.201
161.743
162.316
162.919
163.551
164.209
164.893
165.6
166.328
167.076
167.84
168.619
169.41
170.211
171.018
171.828
172.639
173.449
174.253
175.049
175.833
176.601
177.351
178.077
178.777
179.446
180.081
180.679
175.373
175.458
175.603
175.798
176.039
176.325
176.654
177.027
177.443
177.9
178.399
178.937
179.514
180.128
180.779
181.464
182.182
182.931
183.709
184.515
185.346
186.199
187.073
187.964
188.87
189.787
190.713
191.643
192.576
193.507
194.433
195.349
196.253
197.139
198.004
198.843
199.651
200.424
201.158
201.848
192.739
192.833
192.993
193.21
193.478
193.796
194.164
194.58
195.043
195.554
196.111
196.713
197.359
198.048
198.777
199.546
200.353
201.195
202.072
202.979
203.916
204.88
205.867
206.875
207.9
208.939
209.989
211.046
212.106
213.165
214.219
215.263
216.293
217.303
218.29
219.246
220.169
221.052
221.89
222.679
209.689
209.791
209.967
210.205
210.501
210.852
211.257
211.716
212.229
212.794
213.411
214.078
214.795
215.559
216.37
217.225
218.123
219.063
220.04
221.054
222.101
223.18
224.285
225.415
226.566
227.733
228.914
230.103
231.297
232.492
233.681
234.86
236.023
237.165
238.28
239.362
240.406
241.405
242.354
243.248
226.271
226.381
226.572
226.831
227.153
227.537
227.981
228.485
229.047
229.668
230.346
231.08
231.869
232.712
233.607
234.551
235.545
236.584
237.667
238.791
239.954
241.152
242.382
243.64
244.923
246.226
247.544
248.874
250.21
251.547
252.879
254.2
255.505
256.786
258.037
259.252
260.424
261.547
262.614
263.618
242.523
242.641
242.846
243.126
243.476
243.893
244.376
244.925
245.538
246.216
246.957
247.76
248.624
249.548
250.529
251.567
252.659
253.803
254.996
256.236
257.519
258.843
260.203
261.597
263.018
264.463
265.927
267.405
268.891
270.379
271.863
273.335
274.79
276.218
277.614
278.97
280.279
281.532
282.723
283.845
258.48
258.604
258.824
259.125
259.502
259.952
260.475
261.07
261.736
262.473
263.279
264.153
265.095
266.102
267.174
268.308
269.502
270.755
272.063
273.424
274.834
276.289
277.787
279.322
280.89
282.485
284.103
285.738
287.383
289.031
290.675
292.308
293.921
295.506
297.056
298.561
300.015
301.407
302.731
303.978
274.168
274.299
274.532
274.854
275.259
275.743
276.307
276.95
277.669
278.466
279.339
280.287
281.309
282.403
283.569
284.803
286.104
287.471
288.899
290.386
291.928
293.523
295.164
296.849
298.571
300.325
302.105
303.905
305.718
307.536
309.35
311.153
312.935
314.687
316.399
318.064
319.671
321.212
322.677
324.057
289.612
289.749
289.995
290.338
290.77
291.29
291.895
292.586
293.361
294.22
295.162
296.186
297.291
298.475
299.738
301.077
302.49
303.974
305.528
307.147
308.828
310.568
312.361
314.202
316.087
318.008
319.96
321.935
323.926
325.923
327.918
329.901
331.861
333.79
335.677
337.51
339.281
340.98
342.595
344.117
304.83
304.972
305.232
305.595
306.055
306.61
307.259
307.999
308.831
309.754
310.767
311.869
313.06
314.338
315.702
317.149
318.677
320.285
321.97
323.727
325.553
327.445
329.396
331.403
333.458
335.556
337.689
339.849
342.028
344.215
346.401
348.575
350.726
352.843
354.914
356.928
358.874
360.741
362.516
364.191
319.837
319.985
320.258
320.641
321.13
321.721
322.413
323.204
324.094
325.083
326.169
327.353
328.633
330.007
331.475
333.034
334.683
336.419
338.239
340.141
342.119
344.169
346.287
348.467
350.701
352.985
355.308
357.664
360.041
362.43
364.819
367.196
369.55
371.867
374.135
376.342
378.475
380.521
382.468
384.305
334.646
334.8
335.085
335.49
336.007
336.635
337.37
338.213
339.163
340.22
341.382
342.649
344.02
345.494
347.069
348.745
350.519
352.388
354.349
356.4
358.536
360.752
363.044
365.405
367.828
370.307
372.831
375.393
377.98
380.582
383.186
385.78
388.349
390.88
393.359
395.772
398.105
400.344
402.476
404.487
349.267
349.426
349.725
350.15
350.696
351.361
352.141
353.037
354.048
355.174
356.413
357.766
359.231
360.807
362.494
364.29
366.192
368.199
370.307
372.513
374.813
377.203
379.676
382.226
384.847
387.531
390.267
393.045
395.855
398.683
401.516
404.34
407.139
409.898
412.603
415.236
417.784
420.231
422.562
424.761
363.708
363.873
364.183
364.63
365.205
365.907
366.733
367.683
368.756
369.952
371.271
372.711
374.272
375.954
377.756
379.675
381.71
383.858
386.118
388.485
390.956
393.525
396.187
398.936
401.764
404.662
407.621
410.629
413.673
416.741
419.817
422.886
425.93
428.935
431.881
434.753
437.532
440.203
442.748
445.151
377.974
378.144
378.468
378.935
379.539
380.279
381.151
382.156
383.293
384.56
385.959
387.489
389.149
390.939
392.857
394.903
397.074
399.369
401.785
404.319
406.966
409.722
412.581
415.536
418.58
421.704
424.896
428.146
431.439
434.761
438.095
441.426
444.733
448
451.207
454.336
457.366
460.28
463.058
465.682
392.069
392.245
392.581
393.069
393.703
394.481
395.4
396.46
397.66
399.001
400.482
402.103
403.863
405.763
407.8
409.976
412.287
414.732
417.309
420.014
422.843
425.793
428.856
432.026
435.296
438.656
442.094
445.598
449.154
452.745
456.355
459.965
463.555
467.105
470.594
474.001
477.304
480.482
483.515
486.38
405.997
406.178
406.527
407.035
407.699
408.515
409.481
410.596
411.861
413.276
414.839
416.552
418.415
420.426
422.586
424.893
427.347
429.946
432.688
435.569
438.586
441.735
445.01
448.404
451.909
455.515
459.211
462.984
466.817
470.695
474.599
478.509
482.402
486.258
490.052
493.761
497.362
500.83
504.141
507.271
419.757
419.943
420.305
420.835
421.528
422.382
423.395
424.566
425.896
427.385
429.032
430.838
432.804
434.928
437.212
439.653
442.253
445.009
447.919
450.98
454.191
457.545
461.039
464.665
468.414
472.278
476.244
480.299
484.426
488.609
492.826
497.057
501.278
505.464
509.59
513.631
517.558
521.344
524.963
528.386
433.35
433.543
433.917
434.468
435.19
436.082
437.142
438.369
439.764
441.327
443.059
444.959
447.028
449.266
451.675
454.253
456.999
459.915
462.996
466.243
469.651
473.217
476.935
480.801
484.804
488.936
493.185
497.537
501.975
506.481
511.034
515.61
520.184
524.73
529.219
533.623
537.911
542.05
546.01
549.757
446.777
446.974
447.362
447.933
448.685
449.614
450.721
452.004
453.464
455.101
456.916
458.91
461.084
463.437
465.971
468.686
471.582
474.658
477.914
481.348
484.958
488.74
492.691
496.803
501.069
505.481
510.025
514.689
519.455
524.305
529.215
534.163
539.12
544.059
548.947
553.753
558.44
562.973
567.314
571.424
460.034
460.238
460.638
461.229
462.01
462.977
464.129
465.468
466.992
468.704
470.602
472.69
474.967
477.435
480.096
482.948
485.994
489.233
492.665
496.29
500.104
504.107
508.294
512.66
517.198
521.899
526.751
531.742
536.855
542.069
547.363
552.711
558.084
563.452
568.781
574.033
579.168
584.143
588.912
593.431
473.121
473.33
473.742
474.354
475.163
476.167
477.365
478.758
480.346
482.131
484.113
486.293
488.674
491.256
494.042
497.032
500.228
503.631
507.24
511.056
515.079
519.305
523.734
528.359
533.176
538.176
543.349
548.681
554.158
559.76
565.463
571.242
577.069
582.909
588.725
594.476
600.116
605.592
610.849
615.833
486.034
486.249
486.674
487.305
488.142
489.182
490.425
491.872
493.522
495.379
497.442
499.715
502.198
504.893
507.804
510.931
514.276
517.842
521.629
525.638
529.869
534.322
538.995
543.885
548.987
554.294
559.798
565.487
571.347
577.357
583.498
589.743
596.063
602.423
608.783
615.096
621.308
627.357
633.176
638.693
498.77
498.991
499.428
500.079
500.943
502.018
503.305
504.804
506.516
508.443
510.587
512.949
515.533
518.34
521.373
524.636
528.129
531.857
535.82
540.022
544.462
549.142
554.062
559.219
564.611
570.234
576.079
582.137
588.396
594.838
601.445
608.192
615.049
621.983
628.952
635.902
642.771
649.483
655.954
662.093
511.327
511.553
512.002
512.672
513.562
514.672
516.001
517.551
519.323
521.318
523.54
525.991
528.673
531.589
534.743
538.139
541.778
545.666
549.804
554.196
558.844
563.751
568.917
574.343
580.029
585.971
592.165
598.604
605.277
612.173
619.274
626.559
634.002
641.571
649.223
656.9
664.529
672.018
679.258
686.13
523.7
523.931
524.392
525.081
525.996
527.139
528.509
530.108
531.937
534
536.297
538.833
541.611
544.634
547.906
551.431
555.214
559.258
563.567
568.147
573
578.131
583.542
589.237
595.216
601.48
608.027
614.855
621.956
629.323
636.945
644.806
652.885
661.155
669.576
678.087
686.604
695.015
703.177
710.931
535.886
536.122
536.594
537.301
538.241
539.415
540.824
542.47
544.355
546.482
548.852
551.471
554.341
557.467
560.853
564.504
568.425
572.622
577.098
581.861
586.914
592.265
597.917
603.876
610.146
616.731
623.633
630.854
638.392
646.245
654.411
662.881
671.647
680.689
689.974
699.445
709.009
718.53
727.82
736.654
547.88
548.122
548.605
549.328
550.291
551.496
552.943
554.634
556.572
558.759
561.2
563.897
566.856
570.081
573.577
577.349
581.404
585.746
590.384
595.323
600.571
606.134
612.021
618.238
624.794
631.695
638.948
646.56
654.537
662.885
671.611
680.721
690.219
700.103
710.356
720.932
731.738
742.614
753.313
763.509
559.68
559.927
560.42
561.159
562.144
563.377
564.86
566.593
568.582
570.827
573.334
576.107
579.15
582.469
586.069
589.957
594.139
598.621
603.413
608.52
613.953
619.721
625.832
632.298
639.129
646.336
653.932
661.928
670.34
679.183
688.476
698.244
708.51
719.3
730.624
742.464
754.745
767.293
779.795
791.772
571.281
571.532
572.035
572.789
573.795
575.055
576.571
578.345
580.38
582.68
585.25
588.094
591.217
594.625
598.323
602.32
606.621
611.236
616.172
621.438
627.046
633.006
639.33
646.032
653.124
660.623
668.545
676.911
685.743
695.069
704.923
715.35
726.403
738.143
750.626
763.889
777.907
792.533
807.4
821.817
582.679
582.935
583.447
584.215
585.24
586.525
588.072
589.883
591.963
594.315
596.943
599.853
603.05
606.541
610.331
614.429
618.842
623.579
628.65
634.064
639.834
645.973
652.494
659.414
666.749
674.519
682.747
691.459
700.686
710.47
720.861
731.928
743.758
756.457
770.149
784.959
800.971
818.154
836.18
854.139
593.871
594.131
594.651
595.432
596.476
597.784
599.359
601.205
603.326
605.725
608.408
611.379
614.645
618.212
622.087
626.278
630.793
635.642
640.835
646.385
652.303
658.604
665.304
672.422
679.977
687.993
696.498
705.523
715.111
725.312
736.196
747.854
760.411
774.027
788.905
805.295
823.468
843.668
865.89
889.32
604.854
605.118
605.645
606.438
607.498
608.827
610.429
612.307
614.465
616.908
619.64
622.668
625.996
629.632
633.584
637.859
642.466
647.416
652.719
658.389
664.439
670.884
677.743
685.035
692.784
701.015
709.761
719.06
728.96
739.523
750.834
763.006
776.196
790.615
806.55
824.384
844.635
868.01
895.394
927.476
14.0856
14.118
14.1472
14.1732
14.1958
14.2148
14.2302
14.2418
14.2495
14.2534
14.2534
14.2495
14.2418
14.2302
14.2148
14.1958
14.1732
14.1472
14.118
14.0856
40.8625
40.9592
41.0467
41.1244
41.1918
41.2486
41.2945
41.3291
41.3523
41.3639
41.3639
41.3523
41.3291
41.2945
41.2486
41.1918
41.1244
41.0467
40.9592
40.8625
66.4199
66.5811
66.7269
66.8565
66.969
67.0637
67.1402
67.1979
67.2366
67.256
67.256
67.2366
67.1979
67.1402
67.0637
66.969
66.8565
66.7269
66.5811
66.4199
90.9218
91.1484
91.3533
91.5355
91.6936
91.8269
91.9344
92.0156
92.0699
92.0972
92.0972
92.0699
92.0156
91.9344
91.8269
91.6936
91.5355
91.3533
91.1484
90.9218
114.521
114.814
115.08
115.316
115.521
115.693
115.833
115.938
116.008
116.044
116.044
116.008
115.938
115.833
115.693
115.521
115.316
115.08
114.814
114.521
137.356
137.719
138.047
138.339
138.593
138.806
138.979
139.109
139.196
139.24
139.24
139.196
139.109
138.979
138.806
138.593
138.339
138.047
137.719
137.356
159.556
159.991
160.385
160.735
161.039
161.296
161.503
161.659
161.764
161.816
161.816
161.764
161.659
161.503
161.296
161.039
160.735
160.385
159.991
159.556
181.234
181.745
182.208
182.619
182.977
183.278
183.521
183.705
183.828
183.89
183.89
183.828
183.705
183.521
183.278
182.977
182.619
182.208
181.745
181.234
202.491
203.082
203.617
204.093
204.507
204.856
205.138
205.35
205.493
205.564
205.564
205.493
205.35
205.138
204.856
204.507
204.093
203.617
203.082
202.491
223.414
224.089
224.702
225.246
225.72
226.119
226.442
226.686
226.849
226.931
226.931
226.849
226.686
226.442
226.119
225.72
225.246
224.702
224.089
223.414
244.08
244.845
245.539
246.156
246.693
247.147
247.513
247.789
247.975
248.067
248.067
247.975
247.789
247.513
247.147
246.693
246.156
245.539
244.845
244.08
264.553
265.414
266.195
266.89
267.494
268.005
268.417
268.728
268.937
269.042
269.042
268.937
268.728
268.417
268.005
267.494
266.89
266.195
265.414
264.553
284.891
285.853
286.726
287.503
288.18
288.751
289.212
289.561
289.795
289.912
289.912
289.795
289.561
289.212
288.751
288.18
287.503
286.726
285.853
284.891
305.141
306.211
307.182
308.047
308.8
309.436
309.95
310.338
310.599
310.729
310.729
310.599
310.338
309.95
309.436
308.8
308.047
307.182
306.211
305.141
325.344
326.529
327.605
328.564
329.398
330.103
330.673
331.104
331.392
331.537
331.537
331.392
331.104
330.673
330.103
329.398
328.564
327.605
326.529
325.344
345.537
346.845
348.033
349.091
350.013
350.791
351.421
351.897
352.216
352.376
352.376
352.216
351.897
351.421
350.791
350.013
349.091
348.033
346.845
345.537
365.752
367.192
368.499
369.664
370.678
371.536
372.229
372.753
373.104
373.281
373.281
373.104
372.753
372.229
371.536
370.678
369.664
368.499
367.192
365.752
386.019
387.599
389.034
390.313
391.428
392.369
393.131
393.707
394.093
394.286
394.286
394.093
393.707
393.131
392.369
391.428
390.313
389.034
387.599
386.019
406.364
408.095
409.668
411.07
412.291
413.324
414.158
414.79
415.213
415.425
415.425
415.213
414.79
414.158
413.324
412.291
411.07
409.668
408.095
406.364
426.815
428.708
430.429
431.963
433.3
434.43
435.343
436.034
436.497
436.73
436.73
436.497
436.034
435.343
434.43
433.3
431.963
430.429
428.708
426.815
447.396
449.466
451.347
453.024
454.486
455.72
456.718
457.473
457.979
458.233
458.233
457.979
457.473
456.718
455.72
454.486
453.024
451.347
449.466
447.396
468.134
470.396
472.451
474.283
475.879
477.227
478.317
479.14
479.693
479.969
479.969
479.693
479.14
478.317
477.227
475.879
474.283
472.451
470.396
468.134
489.058
491.528
493.773
495.774
497.516
498.987
500.175
501.073
501.675
501.976
501.976
501.675
501.073
500.175
498.987
497.516
495.774
493.773
491.528
489.058
510.197
512.897
515.348
517.533
519.434
521.038
522.333
523.311
523.966
524.294
524.294
523.966
523.311
522.333
521.038
519.434
517.533
515.348
512.897
510.197
531.585
534.537
537.216
539.602
541.676
543.424
544.834
545.898
546.611
546.968
546.968
546.611
545.898
544.834
543.424
541.676
539.602
537.216
534.537
531.585
553.26
556.491
559.42
562.027
564.29
566.194
567.729
568.885
569.659
570.046
570.046
569.659
568.885
567.729
566.194
564.29
562.027
559.42
556.491
553.26
575.266
578.806
582.014
584.863
587.332
589.405
591.073
592.328
593.166
593.585
593.585
593.166
592.328
591.073
589.405
587.332
584.863
582.014
578.806
575.266
597.655
601.542
605.058
608.173
610.866
613.121
614.93
616.289
617.195
617.648
617.648
617.195
616.289
614.93
613.121
610.866
608.173
605.058
601.542
597.655
620.488
624.766
628.625
632.033
634.968
637.418
639.376
640.842
641.817
642.304
642.304
641.817
640.842
639.376
637.418
634.968
632.033
628.625
624.766
620.488
643.843
648.564
652.806
656.535
659.731
662.384
664.495
666.069
667.114
667.634
667.634
667.114
666.069
664.495
662.384
659.731
656.535
652.806
648.564
643.843
667.814
673.039
677.71
681.789
685.26
688.123
690.387
692.066
693.176
693.728
693.728
693.176
692.066
690.387
688.123
685.26
681.789
677.71
673.039
667.814
692.52
698.325
703.475
707.931
711.688
714.757
717.165
718.94
720.107
720.685
720.685
720.107
718.94
717.165
714.757
711.688
707.931
703.475
698.325
692.52
718.114
724.59
730.273
735.129
739.168
742.429
744.959
746.809
748.017
748.614
748.614
748.017
746.809
744.959
742.429
739.168
735.129
730.273
724.59
718.114
744.798
752.058
758.327
763.588
767.887
771.3
773.913
775.802
777.027
777.629
777.629
777.027
775.802
773.913
771.3
767.887
763.588
758.327
752.058
744.798
772.845
781.026
787.923
793.563
798.059
801.553
804.181
806.055
807.258
807.847
807.847
807.258
806.055
804.181
801.553
798.059
793.563
787.923
781.026
772.845
802.641
811.906
819.434
825.361
829.928
833.378
835.917
837.699
838.831
839.38
839.38
838.831
837.699
835.917
833.378
829.928
825.361
819.434
811.906
802.641
834.769
845.293
853.346
859.34
863.75
866.964
869.268
870.855
871.851
872.331
872.331
871.851
870.855
869.268
866.964
863.75
859.34
853.346
845.293
834.769
870.212
882.079
890.276
895.884
899.76
902.465
904.346
905.616
906.404
906.781
906.781
906.404
905.616
904.346
902.465
899.76
895.884
890.276
882.079
870.212
910.922
923.642
930.927
935.311
938.104
939.958
941.21
942.039
942.548
942.79
942.79
942.548
942.039
941.21
939.958
938.104
935.311
930.927
923.642
910.922
961.772
971.942
975.803
977.664
978.728
979.4
979.843
980.133
980.309
980.393
980.393
980.309
980.133
979.843
979.4
978.728
977.664
975.803
971.942
961.772
14.0504
14.0124
13.972
13.9293
13.8846
13.8381
13.7901
13.7406
13.69
13.6385
13.5861
13.5332
13.4798
13.4263
13.3729
13.3196
13.2668
13.2145
13.1631
13.1126
13.0632
13.015
12.9683
12.9231
12.8796
12.8378
12.798
12.7602
12.7246
12.6911
12.6601
12.6315
12.6053
12.5818
12.5609
12.5426
12.5271
12.5142
12.5042
12.4977
40.7572
40.6439
40.5231
40.3957
40.2622
40.1234
39.9798
39.8322
39.6812
39.5273
39.3711
39.2132
39.0543
38.8949
38.7356
38.577
38.4198
38.2643
38.1113
37.9611
37.8143
37.6712
37.5324
37.3981
37.2689
37.1451
37.027
36.915
36.8094
36.7105
36.6185
36.5338
36.4566
36.3869
36.3252
36.2714
36.2257
36.1884
36.1605
36.1442
66.2444
66.0554
65.8542
65.6419
65.4195
65.1882
64.9491
64.7034
64.452
64.1961
63.9365
63.6741
63.41
63.1453
62.8808
62.6177
62.3568
62.099
61.8453
61.5964
61.3532
61.1163
60.8865
60.6644
60.4507
60.246
60.0508
59.8658
59.6914
59.5281
59.3764
59.2367
59.1093
58.9946
58.8929
58.8045
58.7296
58.669
58.624
58.5979
90.6751
90.4097
90.127
89.8288
89.5165
89.1919
88.8564
88.5117
88.1593
87.8007
87.4371
87.07
86.7007
86.3305
85.961
85.5934
85.2291
84.8694
84.5154
84.1684
83.8293
83.4993
83.1793
82.8702
82.5729
82.2882
82.0169
81.7599
81.5177
81.291
81.0805
80.8868
80.7102
80.5513
80.4105
80.2882
80.1849
80.1013
80.0394
80.0034
114.201
113.857
113.492
113.106
112.702
112.282
111.848
111.403
110.947
110.484
110.015
109.542
109.067
108.59
108.115
107.642
107.174
106.712
106.258
105.813
105.378
104.955
104.545
104.149
103.769
103.405
103.058
102.73
102.421
102.131
101.863
101.616
101.391
101.188
101.009
100.854
100.722
100.616
100.537
100.491
136.962
136.537
136.085
135.609
135.11
134.592
134.057
133.509
132.948
132.378
131.801
131.22
130.636
130.051
129.468
128.889
128.316
127.751
127.195
126.651
126.12
125.603
125.103
124.621
124.158
123.714
123.292
122.893
122.517
122.166
121.84
121.54
121.267
121.022
120.805
120.616
120.457
120.329
120.233
120.177
159.083
158.574
158.033
157.462
156.865
156.246
155.606
154.95
154.28
153.599
152.911
152.218
151.522
150.827
150.134
149.446
148.765
148.094
147.435
146.791
146.162
145.552
144.961
144.391
143.844
143.321
142.824
142.353
141.911
141.498
141.115
140.762
140.442
140.154
139.899
139.678
139.492
139.341
139.228
139.162
180.679
180.081
179.446
178.777
178.077
177.351
176.601
175.833
175.049
174.253
173.449
172.639
171.828
171.018
170.211
169.41
168.619
167.84
167.076
166.328
165.6
164.893
164.209
163.551
162.919
162.316
161.743
161.201
160.692
160.216
159.776
159.371
159.003
158.673
158.381
158.127
157.913
157.74
157.611
157.535
201.848
201.158
200.424
199.651
198.843
198.004
197.139
196.253
195.349
194.433
193.507
192.576
191.643
190.713
189.787
188.87
187.964
187.073
186.199
185.346
184.515
183.709
182.931
182.182
181.464
180.779
180.128
179.514
178.937
178.399
177.9
177.443
177.027
176.654
176.325
176.039
175.798
175.603
175.458
175.373
222.679
221.89
221.052
220.169
219.246
218.29
217.303
216.293
215.263
214.219
213.165
212.106
211.046
209.989
208.939
207.9
206.875
205.867
204.88
203.916
202.979
202.072
201.195
200.353
199.546
198.777
198.048
197.359
196.713
196.111
195.554
195.043
194.58
194.164
193.796
193.478
193.21
192.993
192.833
192.739
243.248
242.354
241.405
240.406
239.362
238.28
237.165
236.023
234.86
233.681
232.492
231.297
230.103
228.914
227.733
226.566
225.415
224.285
223.18
222.101
221.054
220.04
219.063
218.123
217.225
216.37
215.559
214.795
214.078
213.411
212.794
212.229
211.716
211.257
210.852
210.501
210.205
209.967
209.791
209.689
263.618
262.614
261.547
260.424
259.252
258.037
256.786
255.505
254.2
252.879
251.547
250.21
248.874
247.544
246.226
244.923
243.64
242.382
241.152
239.954
238.791
237.667
236.584
235.545
234.551
233.607
232.712
231.869
231.08
230.346
229.668
229.047
228.485
227.981
227.537
227.153
226.831
226.572
226.381
226.271
283.845
282.723
281.532
280.279
278.97
277.614
276.218
274.79
273.335
271.863
270.379
268.891
267.405
265.927
264.463
263.018
261.597
260.203
258.843
257.519
256.236
254.996
253.803
252.659
251.567
250.529
249.548
248.624
247.76
246.957
246.216
245.538
244.925
244.376
243.893
243.476
243.126
242.846
242.641
242.523
303.978
302.731
301.407
300.015
298.561
297.056
295.506
293.921
292.308
290.675
289.031
287.383
285.738
284.103
282.485
280.89
279.322
277.787
276.289
274.834
273.424
272.063
270.755
269.502
268.308
267.174
266.102
265.095
264.153
263.279
262.473
261.736
261.07
260.475
259.952
259.502
259.125
258.824
258.604
258.48
324.057
322.677
321.212
319.671
318.064
316.399
314.687
312.935
311.153
309.35
307.536
305.718
303.905
302.105
300.325
298.571
296.849
295.164
293.523
291.928
290.386
288.899
287.471
286.104
284.803
283.569
282.403
281.309
280.287
279.339
278.466
277.669
276.95
276.307
275.743
275.259
274.854
274.532
274.299
274.168
344.117
342.595
340.98
339.281
337.51
335.677
333.79
331.861
329.901
327.918
325.923
323.926
321.935
319.96
318.008
316.087
314.202
312.361
310.568
308.828
307.147
305.528
303.974
302.49
301.077
299.738
298.475
297.291
296.186
295.162
294.22
293.361
292.586
291.895
291.29
290.77
290.338
289.995
289.749
289.612
364.191
362.516
360.741
358.874
356.928
354.914
352.843
350.726
348.575
346.401
344.215
342.028
339.849
337.689
335.556
333.458
331.403
329.396
327.445
325.553
323.727
321.97
320.285
318.677
317.149
315.702
314.338
313.06
311.87
310.767
309.754
308.831
307.999
307.259
306.61
306.055
305.595
305.232
304.972
304.83
384.305
382.468
380.521
378.475
376.342
374.135
371.867
369.55
367.196
364.819
362.43
360.041
357.664
355.308
352.985
350.701
348.467
346.287
344.169
342.119
340.141
338.239
336.419
334.683
333.034
331.475
330.007
328.633
327.353
326.169
325.083
324.094
323.204
322.413
321.721
321.13
320.641
320.258
319.985
319.837
404.487
402.476
400.344
398.105
395.772
393.359
390.88
388.349
385.78
383.186
380.582
377.98
375.393
372.831
370.307
367.828
365.405
363.044
360.752
358.536
356.4
354.349
352.388
350.519
348.745
347.069
345.494
344.02
342.649
341.382
340.22
339.163
338.213
337.37
336.635
336.007
335.49
335.085
334.8
334.646
424.761
422.562
420.231
417.784
415.236
412.603
409.898
407.139
404.34
401.516
398.683
395.855
393.045
390.267
387.531
384.847
382.226
379.676
377.203
374.813
372.513
370.307
368.199
366.192
364.29
362.494
360.807
359.231
357.766
356.413
355.174
354.048
353.037
352.141
351.361
350.696
350.15
349.725
349.426
349.267
445.151
442.748
440.203
437.532
434.753
431.881
428.935
425.93
422.886
419.817
416.741
413.673
410.629
407.621
404.662
401.764
398.936
396.187
393.525
390.956
388.485
386.118
383.858
381.71
379.675
377.756
375.954
374.272
372.711
371.271
369.952
368.756
367.683
366.733
365.907
365.205
364.63
364.183
363.873
363.708
465.682
463.058
460.28
457.366
454.336
451.207
448
444.733
441.426
438.095
434.761
431.439
428.146
424.896
421.704
418.58
415.536
412.581
409.722
406.966
404.319
401.785
399.369
397.074
394.903
392.857
390.939
389.149
387.489
385.959
384.56
383.293
382.156
381.151
380.279
379.539
378.935
378.468
378.144
377.974
486.38
483.515
480.482
477.304
474.001
470.594
467.105
463.555
459.965
456.355
452.745
449.154
445.598
442.094
438.656
435.296
432.026
428.856
425.793
422.843
420.014
417.309
414.732
412.287
409.976
407.8
405.763
403.863
402.103
400.482
399.001
397.66
396.46
395.4
394.481
393.703
393.069
392.581
392.245
392.069
507.271
504.141
500.83
497.362
493.761
490.052
486.258
482.402
478.509
474.599
470.695
466.817
462.984
459.211
455.515
451.909
448.404
445.01
441.735
438.586
435.569
432.688
429.946
427.347
424.893
422.586
420.426
418.415
416.552
414.839
413.276
411.861
410.596
409.481
408.515
407.699
407.035
406.527
406.178
405.997
528.386
524.963
521.344
517.558
513.631
509.59
505.464
501.278
497.057
492.826
488.609
484.426
480.299
476.244
472.278
468.414
464.665
461.039
457.545
454.191
450.98
447.919
445.009
442.253
439.653
437.212
434.928
432.804
430.838
429.032
427.385
425.896
424.566
423.395
422.382
421.528
420.835
420.305
419.943
419.757
549.757
546.01
542.05
537.911
533.623
529.219
524.73
520.184
515.61
511.034
506.481
501.975
497.537
493.185
488.936
484.804
480.8
476.935
473.217
469.651
466.243
462.996
459.915
456.999
454.253
451.675
449.266
447.028
444.959
443.059
441.327
439.764
438.369
437.142
436.082
435.19
434.468
433.917
433.543
433.35
571.424
567.314
562.973
558.44
553.753
548.947
544.059
539.12
534.163
529.215
524.305
519.455
514.689
510.025
505.481
501.069
496.803
492.691
488.74
484.958
481.348
477.914
474.658
471.582
468.686
465.971
463.437
461.084
458.91
456.916
455.101
453.464
452.004
450.721
449.614
448.685
447.933
447.362
446.974
446.777
593.431
588.912
584.143
579.168
574.033
568.781
563.452
558.084
552.711
547.363
542.069
536.855
531.742
526.751
521.899
517.198
512.66
508.294
504.107
500.104
496.29
492.665
489.233
485.994
482.948
480.096
477.435
474.967
472.69
470.602
468.704
466.992
465.468
464.129
462.977
462.01
461.229
460.638
460.238
460.034
615.833
610.849
605.592
600.116
594.476
588.725
582.909
577.069
571.242
565.463
559.76
554.158
548.681
543.349
538.176
533.176
528.359
523.734
519.305
515.079
511.056
507.24
503.63
500.228
497.032
494.042
491.256
488.674
486.293
484.113
482.131
480.346
478.758
477.365
476.167
475.163
474.354
473.742
473.33
473.121
638.693
633.176
627.357
621.308
615.096
608.783
602.423
596.063
589.743
583.498
577.357
571.347
565.487
559.798
554.294
548.987
543.885
538.995
534.322
529.869
525.638
521.629
517.842
514.276
510.931
507.804
504.893
502.198
499.715
497.442
495.379
493.522
491.872
490.425
489.182
488.142
487.305
486.674
486.249
486.034
662.093
655.954
649.483
642.771
635.902
628.952
621.983
615.049
608.192
601.445
594.838
588.396
582.137
576.079
570.234
564.611
559.219
554.062
549.142
544.462
540.022
535.82
531.857
528.129
524.636
521.373
518.34
515.533
512.949
510.587
508.443
506.516
504.804
503.305
502.018
500.943
500.079
499.428
498.991
498.77
686.13
679.258
672.018
664.529
656.9
649.223
641.571
634.002
626.559
619.274
612.173
605.277
598.604
592.165
585.971
580.029
574.343
568.917
563.751
558.844
554.196
549.804
545.666
541.778
538.139
534.743
531.589
528.673
525.991
523.54
521.318
519.323
517.551
516.001
514.672
513.562
512.672
512.002
511.553
511.327
710.931
703.177
695.015
686.604
678.087
669.576
661.155
652.885
644.806
636.945
629.323
621.956
614.855
608.027
601.48
595.216
589.237
583.542
578.131
573
568.147
563.567
559.258
555.214
551.431
547.906
544.634
541.611
538.833
536.297
534
531.937
530.108
528.509
527.139