/*--------------------------------*- C++ -*----------------------------------*\
  =========                 |
  \\      /  F ield         | OpenFOAM: The Open Source CFD Toolbox
   \\    /   O peration     | Website:  https://openfoam.org
    \\  /    A nd           | Version:  6
     \\/     M anipulation  |
\*---------------------------------------------------------------------------*/
FoamFile
{
    version     2.0;
    format      ascii;
    class       volScalarField;
    location    "20";
    object      pos;
}
// * * * * * * * * * * * * * * * * * * * * * * * * * * * * * * * * * * * * * //

dimensions      [0 -3 1 0 0 1 0];

internalField   nonuniform List<scalar> 
8800
(
0.000998514
0.00100256
0.00100443
0.00100541
0.00100609
0.0010067
0.00100735
0.00100805
0.00100881
0.00100962
0.00101048
0.00101137
0.0010123
0.00101325
0.00101422
0.0010152
0.00101618
0.00101716
0.00101814
0.00101912
0.00102008
0.00102103
0.00102197
0.00102288
0.00102378
0.00102465
0.0010255
0.00102631
0.00102709
0.00102783
0.00102853
0.00102919
0.00102983
0.00103044
0.00103104
0.00103162
0.00103218
0.00103272
0.00103324
0.00103374
0.000967292
0.000971889
0.000974008
0.000975054
0.000975759
0.000976388
0.000977041
0.000977745
0.000978505
0.000979316
0.00098017
0.00098106
0.000981976
0.000982912
0.000983859
0.000984813
0.000985767
0.000986716
0.000987656
0.000988585
0.000989499
0.000990395
0.000991273
0.000992128
0.000992959
0.000993763
0.000994536
0.000995275
0.000995975
0.000996635
0.000997252
0.000997832
0.000998396
0.000998949
0.00099949
0.00100002
0.00100054
0.00100104
0.00100152
0.00100198
0.000938814
0.000944695
0.000947078
0.000948164
0.000948849
0.000949456
0.000950091
0.000950779
0.000951524
0.000952317
0.000953152
0.000954018
0.000954907
0.00095581
0.000956721
0.000957632
0.000958538
0.000959435
0.000960319
0.000961187
0.000962036
0.000962864
0.00096367
0.000964453
0.000965209
0.000965938
0.000966634
0.000967294
0.000967916
0.000968496
0.000969031
0.000969561
0.000970094
0.000970621
0.000971142
0.000971659
0.000972169
0.000972671
0.000973161
0.000973633
0.000913563
0.00092042
0.000923151
0.000924321
0.000925006
0.000925592
0.000926199
0.000926858
0.000927573
0.000928334
0.000929133
0.00092996
0.000930806
0.000931662
0.000932521
0.000933376
0.000934223
0.000935058
0.000935877
0.000936678
0.000937458
0.000938218
0.000938956
0.000939671
0.000940362
0.000941026
0.000941661
0.000942262
0.000942826
0.000943352
0.000943861
0.000944407
0.000944952
0.000945498
0.000946047
0.000946597
0.000947148
0.000947695
0.000948235
0.00094876
0.000891258
0.000898825
0.000901879
0.000903167
0.000903879
0.000904452
0.000905031
0.000905655
0.00090633
0.000907048
0.0009078
0.000908577
0.000909369
0.000910168
0.000910968
0.000911762
0.000912547
0.000913319
0.000914076
0.000914815
0.000915537
0.000916242
0.000916928
0.000917595
0.000918244
0.000918872
0.000919476
0.000920052
0.000920596
0.000921112
0.000921699
0.000922295
0.000922899
0.000923512
0.000924134
0.000924763
0.000925396
0.000926031
0.00092666
0.000927277
0.000871516
0.000879658
0.000882999
0.000884408
0.000885155
0.000885721
0.000886272
0.000886858
0.000887488
0.000888157
0.000888857
0.000889578
0.000890313
0.000891054
0.000891795
0.000892531
0.000893259
0.000893977
0.000894684
0.000895379
0.000896062
0.000896734
0.000897395
0.000898045
0.000898685
0.000899313
0.000899927
0.000900522
0.000901096
0.00090172
0.000902395
0.000903088
0.000903795
0.000904516
0.00090525
0.000905994
0.000906745
0.000907498
0.000908249
0.000908987
0.000854051
0.000862644
0.000866237
0.00086776
0.000868544
0.000869106
0.000869631
0.000870178
0.000870763
0.000871382
0.000872029
0.000872697
0.000873377
0.000874065
0.000874754
0.000875443
0.000876128
0.000876809
0.000877486
0.00087816
0.00087883
0.000879499
0.000880167
0.000880836
0.000881505
0.000882175
0.000882842
0.000883506
0.000884178
0.000884956
0.000885761
0.000886588
0.000887435
0.000888298
0.000889174
0.00089006
0.000890953
0.000891848
0.00089274
0.000893619
0.000838612
0.000847515
0.000851324
0.000852956
0.000853779
0.00085434
0.000854842
0.000855354
0.000855896
0.00085647
0.000857069
0.000857689
0.000858324
0.000858969
0.00085962
0.000860277
0.000860939
0.000861605
0.000862276
0.000862955
0.000863643
0.000864341
0.000865051
0.000865775
0.000866512
0.000867262
0.000868026
0.0008688
0.000869662
0.000870598
0.000871565
0.000872559
0.000873574
0.000874603
0.000875642
0.000876688
0.000877738
0.000878787
0.000879832
0.000880862
0.000824967
0.000834033
0.000838019
0.000839755
0.00084062
0.000841185
0.000841669
0.000842152
0.000842658
0.000843193
0.000843754
0.000844337
0.000844938
0.000845555
0.000846186
0.00084683
0.000847489
0.000848163
0.000848855
0.000849567
0.000850302
0.000851062
0.000851847
0.000852659
0.000853499
0.000854369
0.00085527
0.000856203
0.000857277
0.000858399
0.000859555
0.000860739
0.000861941
0.000863153
0.000864368
0.000865583
0.000866795
0.000868002
0.000869202
0.000870385
0.000812904
0.000821988
0.000826109
0.000827942
0.000828853
0.000829429
0.000829903
0.000830364
0.000830843
0.000831349
0.000831882
0.000832442
0.000833025
0.00083363
0.000834259
0.000834911
0.000835588
0.000836294
0.000837032
0.000837804
0.000838614
0.000839463
0.000840353
0.000841284
0.000842257
0.000843274
0.000844343
0.000845499
0.000846776
0.000848104
0.000849469
0.000850858
0.000852261
0.000853665
0.000855062
0.000856446
0.000857818
0.000859179
0.000860528
0.000861858
0.000802229
0.000811196
0.000815408
0.000817331
0.000818293
0.000818887
0.000819359
0.000819807
0.00082027
0.000820759
0.000821278
0.000821827
0.000822407
0.000823019
0.000823663
0.000824342
0.000825059
0.000825819
0.000826625
0.00082748
0.000828387
0.00082935
0.000830368
0.000831442
0.000832572
0.00083376
0.000835005
0.000836417
0.000837912
0.000839463
0.000841048
0.000842654
0.000844264
0.000845864
0.000847441
0.00084899
0.000850514
0.000852018
0.000853504
0.000854968
0.000792769
0.000801497
0.000805755
0.000807759
0.000808776
0.000809396
0.000809876
0.000810322
0.000810779
0.000811263
0.00081178
0.000812334
0.000812927
0.00081356
0.000814236
0.00081496
0.000815736
0.000816567
0.000817459
0.000818416
0.000819441
0.000820536
0.000821701
0.000822936
0.000824241
0.000825621
0.000827089
0.000828731
0.000830455
0.000832237
0.000834051
0.000835878
0.000837697
0.000839491
0.000841243
0.000842946
0.000844608
0.000846238
0.000847846
0.000849427
0.00078437
0.000792755
0.000797013
0.000799087
0.000800161
0.000800816
0.000801313
0.000801768
0.00080223
0.00080272
0.000803249
0.00080382
0.000804438
0.000805107
0.000805831
0.000806615
0.000807464
0.000808382
0.000809376
0.000810448
0.000811604
0.000812844
0.000814169
0.000815578
0.000817069
0.000818648
0.00082036
0.000822231
0.000824188
0.000826207
0.000828254
0.000830303
0.000832328
0.000834309
0.000836226
0.000838069
0.000839852
0.000841588
0.000843296
0.000844974
0.000776894
0.000784851
0.000789061
0.000791192
0.000792326
0.000793023
0.000793547
0.00079402
0.000794498
0.000795006
0.000795556
0.000796157
0.000796813
0.00079753
0.000798314
0.000799169
0.000800103
0.000801119
0.000802225
0.000803424
0.000804719
0.000806114
0.000807607
0.000809197
0.000810881
0.000812657
0.000814627
0.000816728
0.00081892
0.000821179
0.000823458
0.000825725
0.00082795
0.000830109
0.000832176
0.000834141
0.000836023
0.000837842
0.000839627
0.00084138
0.000770215
0.000777679
0.000781798
0.000783969
0.000785162
0.000785908
0.000786467
0.000786968
0.000787472
0.000788007
0.00078859
0.000789229
0.000789934
0.000790709
0.000791561
0.000792498
0.000793525
0.000794647
0.000795872
0.000797204
0.000798645
0.000800199
0.000801864
0.000803639
0.000805523
0.000807516
0.000809725
0.000812057
0.000814484
0.000816981
0.000819489
0.000821968
0.000824382
0.000826704
0.000828903
0.000830967
0.000832924
0.0008348
0.000836625
0.00083843
0.000764222
0.000771151
0.000775135
0.000777328
0.000778578
0.000779377
0.00077998
0.000780517
0.000781055
0.000781626
0.000782249
0.000782936
0.000783696
0.000784537
0.000785465
0.00078649
0.000787615
0.000788849
0.000790198
0.000791665
0.000793255
0.00079497
0.000796808
0.000798768
0.000800851
0.000803081
0.000805514
0.000808075
0.000810734
0.000813465
0.000816196
0.000818877
0.000821465
0.000823918
0.000826216
0.000828358
0.000830366
0.000832274
0.000834125
0.000835956
0.0007588
0.000765193
0.000769001
0.00077119
0.000772492
0.000773348
0.000773999
0.000774581
0.00077516
0.000775774
0.000776445
0.000777185
0.000778007
0.000778919
0.000779928
0.000781044
0.000782273
0.000783621
0.000785095
0.000786699
0.000788438
0.000790313
0.000792323
0.000794466
0.000796742
0.000799218
0.000801873
0.000804661
0.000807546
0.000810482
0.000813415
0.000816286
0.000819034
0.000821612
0.000823995
0.000826186
0.000828212
0.000830121
0.000831965
0.000833795
0.00075386
0.000759719
0.000763333
0.000765496
0.000766837
0.000767746
0.000768452
0.000769083
0.00076971
0.000770373
0.000771097
0.000771897
0.000772784
0.000773771
0.000774864
0.000776074
0.000777407
0.00077887
0.000780469
0.00078221
0.000784096
0.000786129
0.000788309
0.000790633
0.000793095
0.000795795
0.000798665
0.000801673
0.000804779
0.000807931
0.000811066
0.000814111
0.000816999
0.000819675
0.000822111
0.000824314
0.000826322
0.000828193
0.000829996
0.000831794
0.000749321
0.000754658
0.000758064
0.000760186
0.000761555
0.000762515
0.000763275
0.00076396
0.000764639
0.000765356
0.000766136
0.000766998
0.000767955
0.000769018
0.000770196
0.000771499
0.000772933
0.000774508
0.000776228
0.0007781
0.000780127
0.000782311
0.000784652
0.000787149
0.000789829
0.000792736
0.000795818
0.000799043
0.000802366
0.000805727
0.00080905
0.000812253
0.000815256
0.000817997
0.000820448
0.00082262
0.000824563
0.000826353
0.000828075
0.000829805
0.000745115
0.000749948
0.00075314
0.000755206
0.000756591
0.000757596
0.000758411
0.00075915
0.000759884
0.000760656
0.000761496
0.000762421
0.000763447
0.000764586
0.000765848
0.000767242
0.000768776
0.000770459
0.000772296
0.000774295
0.000776458
0.000778789
0.000781287
0.000783947
0.000786848
0.000789961
0.000793254
0.000796693
0.000800227
0.000803788
0.000807286
0.000810625
0.000813711
0.000816477
0.000818894
0.000820982
0.000822807
0.000824463
0.000826055
0.000827675
0.000741181
0.000745535
0.000748509
0.000750507
0.000751898
0.000752942
0.000753807
0.0007546
0.00075539
0.000756219
0.000757118
0.000758107
0.000759202
0.000760415
0.000761758
0.000763241
0.000764871
0.000766658
0.000768609
0.000770729
0.000773024
0.000775496
0.000778146
0.000780988
0.000784089
0.000787403
0.000790904
0.000794554
0.000798295
0.000802044
0.000805699
0.000809145
0.000812277
0.000815017
0.00081734
0.000819279
0.000820918
0.000822377
0.000823782
0.000825244
0.000737465
0.000741369
0.000744126
0.000746047
0.000747435
0.000748509
0.00074942
0.000750265
0.000751109
0.000751995
0.000752952
0.000754004
0.000755166
0.000756452
0.000757873
0.00075944
0.000761162
0.000763049
0.000765107
0.000767344
0.000769763
0.00077237
0.000775164
0.0007782
0.000781491
0.000785004
0.000788711
0.000792568
0.000796507
0.000800433
0.000804222
0.000807741
0.000810869
0.00081352
0.000815675
0.000817383
0.000818755
0.000819938
0.000821086
0.000822328
0.000733924
0.000737408
0.000739951
0.000741787
0.000743162
0.00074426
0.000745211
0.000746104
0.000747
0.00074794
0.000748955
0.000750067
0.000751293
0.000752647
0.000754143
0.00075579
0.0007576
0.00075958
0.00076174
0.000764086
0.000766624
0.00076936
0.000772299
0.000775526
0.000779003
0.000782712
0.000786621
0.000790681
0.000794811
0.000798896
0.000802792
0.00080634
0.000809401
0.000811885
0.000813778
0.000815154
0.000816157
0.000816968
0.000817771
0.000818717
0.000730517
0.000733612
0.000735948
0.000737695
0.000739047
0.00074016
0.000741145
0.000742082
0.000743026
0.000744017
0.000745086
0.000746255
0.000747542
0.000748961
0.000750526
0.000752248
0.000754138
0.000756206
0.00075846
0.000760908
0.000763558
0.000766413
0.000769522
0.00077292
0.000776579
0.00078048
0.000784589
0.000788847
0.000793157
0.000797381
0.000801346
0.000804868
0.000807784
0.000809999
0.000811513
0.000812432
0.000812938
0.000813257
0.000813606
0.000814157
0.000727211
0.00072995
0.000732086
0.000733738
0.000735062
0.000736182
0.000737194
0.000738168
0.000739155
0.000740194
0.000741312
0.000742534
0.000743876
0.000745354
0.000746982
0.000748773
0.000750737
0.000752884
0.000755225
0.000757768
0.000760519
0.000763492
0.000766774
0.000770339
0.000774177
0.000778268
0.000782574
0.000787023
0.000791499
0.000795835
0.000799824
0.000803247
0.000805918
0.000807739
0.000808728
0.000809032
0.000808883
0.000808558
0.00080831
0.000808338
0.000723979
0.000726392
0.000728336
0.000729893
0.000731179
0.000732298
0.00073333
0.000734335
0.000735359
0.000736439
0.000737602
0.00073887
0.000740262
0.000741793
0.000743478
0.000745329
0.000747359
0.000749578
0.000751996
0.000754623
0.000757467
0.000760588
0.00076402
0.000767746
0.000771758
0.000776036
0.000780535
0.000785167
0.000789792
0.000794206
0.00079816
0.000801394
0.000803696
0.000804964
0.000805245
0.000804736
0.000803734
0.000802571
0.000801545
0.000800878
0.000720796
0.000722913
0.000724675
0.000726134
0.000727378
0.000728488
0.000729531
0.000730559
0.000731614
0.000732728
0.000733928
0.000735236
0.000736671
0.000738247
0.00073998
0.000741883
0.000743969
0.00074625
0.000748735
0.000751437
0.000754377
0.000757646
0.000761223
0.000765105
0.000769288
0.000773751
0.000778437
0.000783243
0.000787993
0.000792442
0.000796288
0.000799221
0.000800996
0.000801513
0.000800857
0.000799288
0.000797181
0.000794932
0.000792886
0.000791293
0.000717645
0.000719492
0.000721082
0.000722442
0.000723637
0.00072473
0.000725776
0.000726819
0.000727896
0.000729037
0.000730266
0.000731606
0.000733074
0.000734686
0.000736458
0.000738403
0.000740535
0.000742866
0.000745408
0.00074817
0.000751243
0.000754639
0.000758351
0.000762384
0.000766736
0.000771379
0.000776249
0.000781213
0.000786061
0.000790492
0.000794137
0.000796627
0.000797681
0.000797201
0.000795321
0.000792385
0.000788852
0.000785195
0.000781808
0.000778974
0.000714507
0.000716112
0.000717539
0.0007188
0.000719941
0.000721009
0.000722048
0.000723096
0.000724186
0.000725343
0.000726593
0.000727954
0.000729445
0.000731083
0.000732883
0.000734858
0.000737024
0.000739394
0.00074198
0.000744832
0.000748022
0.000751533
0.000755375
0.000759555
0.000764072
0.000768894
0.000773939
0.000779047
0.000783957
0.000788302
0.000791633
0.000793507
0.000793599
0.000791817
0.000788359
0.000783666
0.0007783
0.000772814
0.000767653
0.000763138
0.000711372
0.000712758
0.000714032
0.000715194
0.000716274
0.000717308
0.000718331
0.000719374
0.000720465
0.000721628
0.000722886
0.000724257
0.00072576
0.000727411
0.000729226
0.000731219
0.000733406
0.000735801
0.000738428
0.000741397
0.000744687
0.000748305
0.00075227
0.000756594
0.000761274
0.00076627
0.000771482
0.000776713
0.000781643
0.000785821
0.000788701
0.000789748
0.000788583
0.000785126
0.000779652
0.000772715
0.000764993
0.000757122
0.00074959
0.000742745
0.000708228
0.000709417
0.000710548
0.00071161
0.000712624
0.000713615
0.000714611
0.000715636
0.000716716
0.000717872
0.000719124
0.000720492
0.000721994
0.000723644
0.000725459
0.000727456
0.000729649
0.000732055
0.000734788
0.00073784
0.000741216
0.000744934
0.000749018
0.000753483
0.000758323
0.000763489
0.000768856
0.000774186
0.000779084
0.000782999
0.000785264
0.000785231
0.000782457
0.000776873
0.000768843
0.000759052
0.000748299
0.000737303
0.000726573
0.000717469
0.000705068
0.000706081
0.000707076
0.000708038
0.00070898
0.000709918
0.000710873
0.000711868
0.000712922
0.000714056
0.000715288
0.000716637
0.000718121
0.000719755
0.000721556
0.000723541
0.000725727
0.000728215
0.00073102
0.00073414
0.000737593
0.000741406
0.000745607
0.00075021
0.000755206
0.000760536
0.000766046
0.000771444
0.00077625
0.000779789
0.000781249
0.000779843
0.000775045
0.000766793
0.00075555
0.000742144
0.000727483
0.000712364
0.000697668
0.000686192
0.000701885
0.000702741
0.000703608
0.000704469
0.00070533
0.000706204
0.000707106
0.000708055
0.000709067
0.000710161
0.000711356
0.000712669
0.000714118
0.00071572
0.00071749
0.000719449
0.000721695
0.00072425
0.000727107
0.000730285
0.000733811
0.000737717
0.000742031
0.000746769
0.000751919
0.000757404
0.000763039
0.00076847
0.000773115
0.000776152
0.000776594
0.000773483
0.000766183
0.000754631
0.000739388
0.000721419
0.000701714
0.000680958
0.000662624
0.000647782
0.000698676
0.000699391
0.000700135
0.000700892
0.000701665
0.000702463
0.000703296
0.000704181
0.000705133
0.000706169
0.000707307
0.000708565
0.000709963
0.000711515
0.000713241
0.000715249
0.000717553
0.000720145
0.000723043
0.000726275
0.000729873
0.00073387
0.000738295
0.000743165
0.00074846
0.000754089
0.000759829
0.000765252
0.00076966
0.000772061
0.000771255
0.000766079
0.00075575
0.000740178
0.000720008
0.000696315
0.000670103
0.000643501
0.000620222
0.000600971
0.000695436
0.000696024
0.00069665
0.0006973
0.000697976
0.000698682
0.00069943
0.000700231
0.000701103
0.000702061
0.000703121
0.000704306
0.000705636
0.000707123
0.000708901
0.000710954
0.00071328
0.000715899
0.000718836
0.000722122
0.00072579
0.000729875
0.000734408
0.000739403
0.000744836
0.000750593
0.000756411
0.000761783
0.000765876
0.000767502
0.000765219
0.000757608
0.000743698
0.000723326
0.000697174
0.000666351
0.000631888
0.000599105
0.000569443
0.000544672
0.000692164
0.000692636
0.000693147
0.000693685
0.000694251
0.00069485
0.000695493
0.000696191
0.000696961
0.000697819
0.000698782
0.000699873
0.000701128
0.000702681
0.000704481
0.000706541
0.00070888
0.000711524
0.000714501
0.000717841
0.000721579
0.00072575
0.000730385
0.000735498
0.000741054
0.000746921
0.000752789
0.000758063
0.000761765
0.000762489
0.000758514
0.000748126
0.000730104
0.000704147
0.000670888
0.000631181
0.000588718
0.000547358
0.000509618
0.000479821
0.000688858
0.000689224
0.000689618
0.000690037
0.00069048
0.000690955
0.000691472
0.000692045
0.000692692
0.000693428
0.000694274
0.000695316
0.000696622
0.000698164
0.000699954
0.000702015
0.00070437
0.000707043
0.000710062
0.000713458
0.000717264
0.000721516
0.000726246
0.000731464
0.000737127
0.000743081
0.000748967
0.000754099
0.000757341
0.000757057
0.000751224
0.00073779
0.000715225
0.000683004
0.000641664
0.000592212
0.000540227
0.000488295
0.000444127
0.000405808
0.000685517
0.000685781
0.000686058
0.000686347
0.000686653
0.000686984
0.000687353
0.000687778
0.000688281
0.000688877
0.000689702
0.000690755
0.000692031
0.00069355
0.000695332
0.0006974
0.000699776
0.000702483
0.000705547
0.000708998
0.00071287
0.000717197
0.000722012
0.000727319
0.000733069
0.000739084
0.000744955
0.000749902
0.000752633
0.000751274
0.000743491
0.000726877
0.000699548
0.000660646
0.000610218
0.00055174
0.000487552
0.000427788
0.000373104
0.000324173
0.000682141
0.000682306
0.000682459
0.000682606
0.000682757
0.000682924
0.000683124
0.000683378
0.000683732
0.000684325
0.000685113
0.000686116
0.000687358
0.00068886
0.000690642
0.000692725
0.000695128
0.000697872
0.000700983
0.000704488
0.000708421
0.000712816
0.000717702
0.000723082
0.000728896
0.000734943
0.000740766
0.000745495
0.000747683
0.000745232
0.00073551
0.000715775
0.000683816
0.000638557
0.00058013
0.000512506
0.000436526
0.000368092
0.000300745
0.000238914
0.000678728
0.000678792
0.000678812
0.000678803
0.000678781
0.000678763
0.000678772
0.000678897
0.000679222
0.00067973
0.00068045
0.000681407
0.000682624
0.00068412
0.000685913
0.000688018
0.000690453
0.000693239
0.000696397
0.000699954
0.000703943
0.000708395
0.000713338
0.000718771
0.000724625
0.000730675
0.00073642
0.000740905
0.000742543
0.000739034
0.000727497
0.000704913
0.000668808
0.000617874
0.000553542
0.000477631
0.000393869
0.000315245
0.000235391
0.00015847
0.0010342
0.00103462
0.00103501
0.00103535
0.00103564
0.00103589
0.00103607
0.00103621
0.00103631
0.00103637
0.00103637
0.00103631
0.00103621
0.00103607
0.00103589
0.00103564
0.00103535
0.00103501
0.00103462
0.0010342
0.00100242
0.00100282
0.00100319
0.00100352
0.00100379
0.00100402
0.0010042
0.00100433
0.00100441
0.00100445
0.00100445
0.00100441
0.00100433
0.0010042
0.00100402
0.00100379
0.00100352
0.00100319
0.00100282
0.00100242
0.000974082
0.000974503
0.000974887
0.00097523
0.000975526
0.000975771
0.000975961
0.000976098
0.000976183
0.000976223
0.000976223
0.000976183
0.000976098
0.000975961
0.000975771
0.000975526
0.00097523
0.000974887
0.000974503
0.000974082
0.000949266
0.000949742
0.000950183
0.000950579
0.000950923
0.000951209
0.000951434
0.000951597
0.0009517
0.000951751
0.000951751
0.0009517
0.000951597
0.000951434
0.000951209
0.000950923
0.000950579
0.000950183
0.000949742
0.000949266
0.000927875
0.000928443
0.000928972
0.00092945
0.00092987
0.000930221
0.0009305
0.000930704
0.000930835
0.000930901
0.000930901
0.000930835
0.000930704
0.0009305
0.000930221
0.00092987
0.00092945
0.000928972
0.000928443
0.000927875
0.000909705
0.000910391
0.000911034
0.000911619
0.000912135
0.000912571
0.00091292
0.000913177
0.000913344
0.00091343
0.00091343
0.000913344
0.000913177
0.00091292
0.000912571
0.000912135
0.000911619
0.000911034
0.000910391
0.000909705
0.000894477
0.0008953
0.000896074
0.000896784
0.000897413
0.000897948
0.000898378
0.000898697
0.000898908
0.000899017
0.000899017
0.000898908
0.000898697
0.000898378
0.000897948
0.000897413
0.000896784
0.000896074
0.0008953
0.000894477
0.000881869
0.00088284
0.000883757
0.000884602
0.000885354
0.000885998
0.000886518
0.000886907
0.000887166
0.000887301
0.000887301
0.000887166
0.000886907
0.000886518
0.000885998
0.000885354
0.000884602
0.000883757
0.00088284
0.000881869
0.000871544
0.000872664
0.000873728
0.000874713
0.000875596
0.000876354
0.000876969
0.000877432
0.000877741
0.000877905
0.000877905
0.000877741
0.000877432
0.000876969
0.000876354
0.000875596
0.000874713
0.000873728
0.000872664
0.000871544
0.000863163
0.00086443
0.000865639
0.000866765
0.000867779
0.000868653
0.000869367
0.000869906
0.000870267
0.000870459
0.000870459
0.000870267
0.000869906
0.000869367
0.000868653
0.000867779
0.000866765
0.000865639
0.00086443
0.000863163
0.000856409
0.000857813
0.00085916
0.000860422
0.000861565
0.000862556
0.000863367
0.000863982
0.000864397
0.000864617
0.000864617
0.000864397
0.000863982
0.000863367
0.000862556
0.000861565
0.000860422
0.00085916
0.000857813
0.000856409
0.000850987
0.000852516
0.00085399
0.00085538
0.000856646
0.000857749
0.000858657
0.000859347
0.000859814
0.000860063
0.000860063
0.000859814
0.000859347
0.000858657
0.000857749
0.000856646
0.00085538
0.00085399
0.000852516
0.000850987
0.000846635
0.000848271
0.000849859
0.000851365
0.000852747
0.000853957
0.000854957
0.00085572
0.000856237
0.000856515
0.000856515
0.000856237
0.00085572
0.000854957
0.000853957
0.000852747
0.000851365
0.000849859
0.000848271
0.000846635
0.00084312
0.000844844
0.000846529
0.000848139
0.000849626
0.000850935
0.000852022
0.000852854
0.000853421
0.000853727
0.000853727
0.000853421
0.000852854
0.000852022
0.000850935
0.000849626
0.000848139
0.000846529
0.000844844
0.00084312
0.00084023
0.000842025
0.000843794
0.000845496
0.000847077
0.000848476
0.000849642
0.000850538
0.000851151
0.000851483
0.000851483
0.000851151
0.000850538
0.000849642
0.000848476
0.000847077
0.000845496
0.000843794
0.000842025
0.00084023
0.000837793
0.000839639
0.000841474
0.000843253
0.000844917
0.000846396
0.000847631
0.000848583
0.000849234
0.00084959
0.00084959
0.000849234
0.000848583
0.000847631
0.000846396
0.000844917
0.000843253
0.000841474
0.000839639
0.000837793
0.000835645
0.000837521
0.000839403
0.000841244
0.000842976
0.000844521
0.000845815
0.000846813
0.000847497
0.000847872
0.000847872
0.000847497
0.000846813
0.000845815
0.000844521
0.000842976
0.000841244
0.000839403
0.000837521
0.000835645
0.000833629
0.000835513
0.000837424
0.00083931
0.000841094
0.00084269
0.000844028
0.00084506
0.000845768
0.000846158
0.000846158
0.000845768
0.00084506
0.000844028
0.00084269
0.000841094
0.00083931
0.000837424
0.000835513
0.000833629
0.000831595
0.000833461
0.00083538
0.000837291
0.000839109
0.000840737
0.000842102
0.000843154
0.000843876
0.000844274
0.000844274
0.000843876
0.000843154
0.000842102
0.000840737
0.000839109
0.000837291
0.00083538
0.000833461
0.000831595
0.000829386
0.000831206
0.000833107
0.000835019
0.000836847
0.000838485
0.000839856
0.00084091
0.000841633
0.000842033
0.000842033
0.000841633
0.00084091
0.000839856
0.000838485
0.000836847
0.000835019
0.000833107
0.000831206
0.000829386
0.000826834
0.000828572
0.000830423
0.000832306
0.000834115
0.000835732
0.000837081
0.000838114
0.000838822
0.000839214
0.000839214
0.000838822
0.000838114
0.000837081
0.000835732
0.000834115
0.000832306
0.000830423
0.000828572
0.000826834
0.000823745
0.000825356
0.000827117
0.00082893
0.000830679
0.000832234
0.000833525
0.000834506
0.000835177
0.00083555
0.00083555
0.000835177
0.000834506
0.000833525
0.000832234
0.000830679
0.00082893
0.000827117
0.000825356
0.000823745
0.000819894
0.000821319
0.000822933
0.00082462
0.000826253
0.000827689
0.000828872
0.000829762
0.000830367
0.000830706
0.000830706
0.000830367
0.000829762
0.000828872
0.000827689
0.000826253
0.00082462
0.000822933
0.000821319
0.000819894
0.000815007
0.000816165
0.000817553
0.000819035
0.000820473
0.000821711
0.000822718
0.000823493
0.000824052
0.000824368
0.000824368
0.000824052
0.000823493
0.000822718
0.000821711
0.000820473
0.000819035
0.000817553
0.000816165
0.000815007
0.000808744
0.000809522
0.000810573
0.000811735
0.000812868
0.000813986
0.000814891
0.000815558
0.000816019
0.000816283
0.000816283
0.000816019
0.000815558
0.000814891
0.000813986
0.000812868
0.000811735
0.000810573
0.000809522
0.000808744
0.000800677
0.000800918
0.000801471
0.000802299
0.000803282
0.000804139
0.000804786
0.000805246
0.000805568
0.000805759
0.000805759
0.000805568
0.000805246
0.000804786
0.000804139
0.000803282
0.000802299
0.000801471
0.000800918
0.000800677
0.000790261
0.000789738
0.000789813
0.000790361
0.000790957
0.000791413
0.000791705
0.00079189
0.00079203
0.000792127
0.000792127
0.00079203
0.000791889
0.000791705
0.000791413
0.000790957
0.000790361
0.000789813
0.000789738
0.000790261
0.000776792
0.000775446
0.000775094
0.000775102
0.000775121
0.000775032
0.000774864
0.000774702
0.000774613
0.000774594
0.000774594
0.000774613
0.000774702
0.000774864
0.000775032
0.000775121
0.000775102
0.000775094
0.000775446
0.000776793
0.00075949
0.000757505
0.000756422
0.000755634
0.000754875
0.000754093
0.000753362
0.000752782
0.000752419
0.000752259
0.000752259
0.000752419
0.000752782
0.000753362
0.000754093
0.000754875
0.000755634
0.000756422
0.000757505
0.00075949
0.000737968
0.000734938
0.000732797
0.000730939
0.000729204
0.000727595
0.000726213
0.000725157
0.000724483
0.000724165
0.000724165
0.000724483
0.000725157
0.000726213
0.000727595
0.000729204
0.000730939
0.000732797
0.000734938
0.000737968
0.000711099
0.000706634
0.000703095
0.000699908
0.000697039
0.000694513
0.000692431
0.000690873
0.000689871
0.000689386
0.000689386
0.000689871
0.000690872
0.000692431
0.000694513
0.000697039
0.000699908
0.000703095
0.000706634
0.000711099
0.000677706
0.000671386
0.00066614
0.000661438
0.000657374
0.000653926
0.000651164
0.000649126
0.000647815
0.000647173
0.000647173
0.000647815
0.000649126
0.000651164
0.000653926
0.000657374
0.000661438
0.00066614
0.000671386
0.000677706
0.00063653
0.000627976
0.000620849
0.000614616
0.000609449
0.000605198
0.00060187
0.000599443
0.00059788
0.000597109
0.000597109
0.00059788
0.000599443
0.00060187
0.000605198
0.000609449
0.000614616
0.000620849
0.000627976
0.00063653
0.000586348
0.000575375
0.000566494
0.000559055
0.000552982
0.000548148
0.00054445
0.000541793
0.00054009
0.000539249
0.000539249
0.00054009
0.000541793
0.00054445
0.000548148
0.000552982
0.000559055
0.000566494
0.000575375
0.000586348
0.000526536
0.000513376
0.000502942
0.000494663
0.000488155
0.000483136
0.000479382
0.000476725
0.000475035
0.000474201
0.000474201
0.000475035
0.000476725
0.000479382
0.000483136
0.000488155
0.000494663
0.000502942
0.000513376
0.000526536
0.000456793
0.000441691
0.000430538
0.000422184
0.000415883
0.000411172
0.000407729
0.000405329
0.000403815
0.000403065
0.000403065
0.000403815
0.000405329
0.000407729
0.000411172
0.000415883
0.000422184
0.000430538
0.000441691
0.000456793
0.00037698
0.000361175
0.000350555
0.000343082
0.000337677
0.00033376
0.000330964
0.000329048
0.000327847
0.000327246
0.000327246
0.000327847
0.000329048
0.000330964
0.00033376
0.000337677
0.000343082
0.000350555
0.000361175
0.00037698
0.000288146
0.000273642
0.00026502
0.000259339
0.000255385
0.000252609
0.000250681
0.000249386
0.000248578
0.00024816
0.00024816
0.000248578
0.000249386
0.000250681
0.000252609
0.000255385
0.000259339
0.00026502
0.000273642
0.000288146
0.000192416
0.000181852
0.000176483
0.000173127
0.000170851
0.000169309
0.000168278
0.000167605
0.000167182
0.000166929
0.000166929
0.000167182
0.000167605
0.000168278
0.000169309
0.000170851
0.000173127
0.000176483
0.000181852
0.000192416
9.37822e-05
8.94208e-05
8.75659e-05
8.63477e-05
8.55178e-05
8.49883e-05
8.46606e-05
8.44581e-05
8.43256e-05
8.41961e-05
8.41961e-05
8.43256e-05
8.44581e-05
8.46606e-05
8.49883e-05
8.55178e-05
8.63477e-05
8.75659e-05
8.94208e-05
9.37822e-05
0.00103374
0.00103324
0.00103272
0.00103218
0.00103162
0.00103104
0.00103044
0.00102983
0.00102919
0.00102853
0.00102783
0.00102709
0.00102631
0.0010255
0.00102465
0.00102378
0.00102288
0.00102197
0.00102103
0.00102008
0.00101912
0.00101814
0.00101716
0.00101618
0.0010152
0.00101422
0.00101325
0.0010123
0.00101137
0.00101048
0.00100962
0.00100881
0.00100805
0.00100735
0.0010067
0.00100609
0.00100541
0.00100443
0.00100256
0.000998512
0.00100198
0.00100152
0.00100104
0.00100054
0.00100002
0.00099949
0.000998949
0.000998396
0.000997832
0.000997252
0.000996635
0.000995975
0.000995275
0.000994536
0.000993763
0.000992959
0.000992128
0.000991273
0.000990395
0.000989499
0.000988585
0.000987656
0.000986716
0.000985767
0.000984813
0.000983859
0.000982912
0.000981976
0.00098106
0.00098017
0.000979316
0.000978505
0.000977745
0.000977041