/*--------------------------------*- C++ -*----------------------------------*\
  =========                 |
  \\      /  F ield         | OpenFOAM: The Open Source CFD Toolbox
   \\    /   O peration     | Website:  https://openfoam.org
    \\  /    A nd           | Version:  6
     \\/     M anipulation  |
\*---------------------------------------------------------------------------*/
FoamFile
{
    version     2.0;
    format      ascii;
    class       volScalarField;
    location    "20";
    object      source;
}
// * * * * * * * * * * * * * * * * * * * * * * * * * * * * * * * * * * * * * //

dimensions      [0 -3 0 0 0 1 0];

internalField   nonuniform List<scalar> 
8800
(
0.00162558
0.00162546
0.00162607
0.00162745
0.00162908
0.00163102
0.00163327
0.00163581
0.00163863
0.00164172
0.00164509
0.00164872
0.0016526
0.00165672
0.00166107
0.00166565
0.00167043
0.00167541
0.00168057
0.0016859
0.00169138
0.00169699
0.00170272
0.00170855
0.00171446
0.00172043
0.00172643
0.00173245
0.00173847
0.00174445
0.00175038
0.00175622
0.00176189
0.0017674
0.00177276
0.00177793
0.0017829
0.00178764
0.00179213
0.00179634
0.00137971
0.00137559
0.00137565
0.00137701
0.00137871
0.00138064
0.0013828
0.00138521
0.00138788
0.0013908
0.00139398
0.00139741
0.00140109
0.00140501
0.00140916
0.00141352
0.00141809
0.00142286
0.0014278
0.00143291
0.00143816
0.00144355
0.00144905
0.00145465
0.00146033
0.00146607
0.00147184
0.00147764
0.00148343
0.00148918
0.00149486
0.00150029
0.0015055
0.00151056
0.00151545
0.00152015
0.00152465
0.00152893
0.00153297
0.00153674
0.0011646
0.00115918
0.00115865
0.00115982
0.00116144
0.00116329
0.00116534
0.00116762
0.00117014
0.0011729
0.00117591
0.00117916
0.00118265
0.00118636
0.0011903
0.00119445
0.0011988
0.00120332
0.00120802
0.00121286
0.00121784
0.00122294
0.00122814
0.00123342
0.00123877
0.00124417
0.00124959
0.00125503
0.00126043
0.00126575
0.00127078
0.00127546
0.00128
0.00128438
0.00128859
0.00129262
0.00129645
0.00130007
0.00130347
0.00130662
0.00097807
0.00097342
0.000972782
0.000973701
0.000975113
0.000976796
0.000978704
0.000980836
0.000983196
0.00098579
0.000988619
0.00099168
0.000994966
0.000998467
0.00100217
0.00100607
0.00101014
0.00101437
0.00101875
0.00102325
0.00102785
0.00103255
0.00103732
0.00104215
0.00104702
0.00105192
0.00105681
0.00106168
0.00106646
0.00107097
0.0010749
0.00107873
0.00108242
0.00108595
0.00108931
0.00109251
0.00109552
0.00109835
0.00110098
0.00110339
0.000818373
0.00081528
0.00081489
0.000815666
0.000816881
0.000818377
0.000820112
0.000822074
0.000824261
0.000826673
0.000829306
0.000832154
0.000835207
0.000838453
0.000841877
0.000845463
0.000849192
0.000853045
0.000857004
0.000861051
0.000865167
0.000869336
0.000873543
0.000877771
0.000882006
0.000886229
0.000890409
0.00089448
0.000898291
0.000901473
0.000904453
0.00090733
0.000910061
0.000912644
0.000915083
0.000917375
0.000919517
0.000921501
0.000923318
0.000924962
0.000682912
0.000681698
0.000681753
0.000682492
0.000683552
0.00068487
0.000686424
0.000688202
0.000690198
0.000692405
0.000694814
0.000697415
0.000700193
0.000703134
0.000706217
0.000709423
0.000712732
0.000716123
0.000719575
0.000723071
0.000726592
0.000730122
0.000733648
0.000737155
0.000740625
0.000744031
0.000747318
0.000750366
0.000752907
0.000754888
0.000756882
0.000758768
0.000760527
0.000762166
0.000763693
0.000765108
0.000766409
0.000767587
0.000768634
0.000769543
0.000568754
0.000569576
0.000570161
0.000570924
0.000571863
0.000573016
0.00057439
0.000575975
0.000577763
0.000579742
0.000581898
0.000584217
0.000586681
0.000589268
0.000591958
0.000594729
0.000597556
0.00060042
0.000603298
0.000606174
0.000609029
0.00061185
0.000614623
0.000617332
0.000619956
0.000622452
0.000624735
0.000626629
0.00062778
0.000628839
0.000629881
0.000630829
0.000631681
0.000632454
0.000633157
0.000633793
0.000634355
0.000634833
0.000635216
0.000635493
0.000473025
0.000475884
0.000477017
0.000477832
0.000478671
0.000479671
0.000480865
0.000482253
0.000483821
0.000485555
0.000487438
0.000489449
0.000491569
0.000493773
0.000496037
0.000498338
0.000500652
0.000502956
0.00050523
0.000507457
0.000509622
0.00051171
0.000513709
0.000515601
0.000517356
0.000518913
0.000520152
0.000520834
0.000520945
0.000521165
0.000521353
0.000521475
0.000521544
0.000521581
0.000521599
0.000521601
0.000521574
0.000521505
0.000521373
0.000521162
0.000393039
0.000397803
0.000399461
0.000400335
0.000401085
0.000401941
0.00040296
0.000404149
0.000405493
0.000406976
0.000408576
0.00041027
0.000412036
0.000413847
0.000415679
0.000417506
0.000419304
0.000421053
0.000422733
0.000424326
0.00042582
0.000427202
0.000428458
0.000429567
0.000430491
0.00043115
0.000431392
0.000430946
0.000430377
0.000429873
0.000429345
0.000428787
0.000428225
0.000427685
0.000427183
0.000426719
0.000426277
0.000425832
0.000425355
0.00042482
0.000326366
0.00033281
0.000334943
0.000335874
0.000336543
0.000337262
0.000338115
0.000339111
0.000340236
0.000341472
0.000342794
0.000344179
0.0003456
0.000347031
0.000348448
0.000349825
0.000351139
0.000352369
0.000353498
0.00035451
0.000355393
0.000356134
0.000356721
0.000357128
0.000357312
0.000357186
0.000356597
0.000355304
0.000354183
0.000353098
0.000352008
0.000350928
0.000349896
0.000348942
0.000348088
0.00034733
0.000346645
0.000345998
0.000345344
0.000344648
0.000270865
0.000278709
0.000281259
0.00028224
0.000282834
0.000283427
0.000284124
0.000284939
0.00028586
0.000286864
0.000287927
0.000289023
0.000290127
0.000291212
0.000292252
0.000293225
0.000294109
0.000294883
0.000295532
0.000296042
0.0002964
0.000296598
0.000296619
0.000296438
0.000296004
0.000295211
0.000293848
0.000292148
0.000290604
0.000289085
0.000287585
0.000286138
0.000284789
0.000283575
0.000282521
0.000281626
0.000280855
0.000280161
0.000279484
0.000278774
0.000224692
0.000233632
0.000236536
0.000237562
0.000238089
0.000238568
0.000239124
0.000239776
0.000240512
0.000241309
0.000242142
0.000242984
0.00024381
0.000244595
0.000245314
0.000245945
0.000246468
0.000246865
0.000247122
0.000247225
0.000247165
0.00024693
0.000246508
0.000245869
0.00024496
0.000243666
0.000241766
0.000239836
0.000238002
0.000236189
0.000234421
0.000232745
0.000231216
0.000229875
0.000228754
0.000227854
0.000227129
0.000226519
0.000225945
0.000225347
0.000186282
0.000196012
0.00019921
0.000200278
0.000200747
0.000201126
0.000201559
0.00020207
0.000202647
0.000203268
0.000203906
0.000204536
0.000205133
0.000205673
0.000206134
0.000206494
0.000206735
0.000206842
0.000206801
0.0002066
0.000206232
0.000205685
0.000204946
0.000203988
0.000202757
0.000201146
0.000198932
0.000196869
0.000194869
0.000192888
0.000190976
0.000189192
0.000187598
0.00018624
0.000185161
0.000184361
0.000183787
0.000183363
0.000182987
0.000182598
0.000154325
0.00016455
0.000167986
0.000169095
0.000169518
0.000169813
0.000170144
0.000170537
0.000170984
0.000171462
0.000171944
0.000172408
0.000172828
0.000173183
0.000173451
0.000173612
0.000173653
0.000173557
0.000173313
0.000172912
0.000172344
0.0001716
0.000170668
0.00016952
0.000168099
0.00016625
0.000163986
0.000161887
0.000159831
0.000157792
0.000155841
0.00015405
0.000152489
0.000151202
0.000150245
0.000149631
0.000149289
0.000149126
0.000149006
0.000148906
0.000127733
0.000138174
0.000141798
0.000142949
0.00014334
0.000143569
0.000143817
0.000144118
0.000144465
0.000144834
0.000145202
0.000145545
0.00014584
0.000146068
0.000146207
0.000146242
0.000146158
0.000145943
0.000145585
0.000145078
0.000144411
0.000143577
0.000142564
0.000141345
0.000139855
0.000137873
0.000135718
0.000133673
0.000131656
0.000129646
0.000127742
0.00012603
0.000124584
0.00012342
0.000122639
0.00012229
0.000122256
0.000122432
0.000122681
0.000122907
0.000105632
0.000115993
0.000119763
0.000120968
0.000121342
0.000121522
0.000121709
0.000121942
0.000122216
0.000122511
0.000122803
0.000123069
0.00012329
0.000123444
0.000123516
0.000123488
0.000123351
0.000123091
0.000122701
0.000122171
0.000121495
0.000120664
0.000119668
0.000118481
0.00011704
0.000115054
0.000113065
0.000111146
0.000109246
0.000107296
0.000105496
0.000103943
0.000102696
0.000101803
0.00010133
0.000101293
0.000101608
0.000102155
0.000102785
0.000103373
8.72853e-05
9.73096e-05
0.000101154
0.000102427
0.000102808
0.000102959
0.000103104
0.000103292
0.000103522
0.000103773
0.000104024
0.000104254
0.000104444
0.000104575
0.000104632
0.0001046
0.00010447
0.000104232
0.000103877
0.000103398
0.000102788
0.000102039
0.000101141
0.000100075
9.86653e-05
9.68167e-05
9.50332e-05
9.32969e-05
9.15793e-05
8.98703e-05
8.82969e-05
8.69723e-05
8.59865e-05
8.54032e-05
8.52765e-05
8.56124e-05
8.63266e-05
8.72883e-05
8.83346e-05
8.93149e-05
7.20695e-05
8.15624e-05
8.53946e-05
8.67267e-05
8.71381e-05
8.72879e-05
8.74149e-05
8.75821e-05
8.7792e-05
8.80255e-05
8.82647e-05
8.84939e-05
8.86918e-05
8.88423e-05
8.89315e-05
8.89357e-05
8.88587e-05
8.86909e-05
8.84225e-05
8.80468e-05
8.75571e-05
8.69459e-05
8.62033e-05
8.5312e-05
8.40469e-05
8.2501e-05
8.09766e-05
7.94788e-05
7.80001e-05
7.65541e-05
7.52544e-05
7.42236e-05
7.35679e-05
7.33626e-05
7.36543e-05
7.44348e-05
7.56141e-05
7.70469e-05
7.8555e-05
7.99656e-05
5.94639e-05
6.82813e-05
7.20236e-05
7.33974e-05
7.38477e-05
7.40137e-05
7.41422e-05
7.43076e-05
7.45189e-05
7.47616e-05
7.50187e-05
7.52745e-05
7.55106e-05
7.57123e-05
7.58673e-05
7.59586e-05
7.59841e-05
7.59362e-05
7.58069e-05
7.55897e-05
7.52778e-05
7.48637e-05
7.43375e-05
7.36829e-05
7.26246e-05
7.14112e-05
7.0183e-05
6.89643e-05
6.77686e-05
6.66317e-05
6.56628e-05
6.49932e-05
6.47435e-05
6.49989e-05
6.57986e-05
6.71175e-05
6.88503e-05
7.08327e-05
7.28672e-05
7.47605e-05
4.90356e-05
5.70777e-05
6.0662e-05
6.20553e-05
6.25482e-05
6.27443e-05
6.28917e-05
6.30737e-05
6.33058e-05
6.35782e-05
6.38758e-05
6.41843e-05
6.44875e-05
6.47722e-05
6.50273e-05
6.52388e-05
6.5403e-05
6.55133e-05
6.55628e-05
6.55448e-05
6.54525e-05
6.5278e-05
6.50114e-05
6.45885e-05
6.38473e-05
6.29843e-05
6.20829e-05
6.11785e-05
6.0305e-05
5.95206e-05
5.89402e-05
5.8706e-05
5.8952e-05
5.97712e-05
6.11942e-05
6.3174e-05
6.55804e-05
6.82214e-05
7.08749e-05
7.33264e-05
4.04234e-05
4.76303e-05
5.09992e-05
5.23871e-05
5.29209e-05
5.3157e-05
5.33379e-05
5.35525e-05
5.38224e-05
5.41423e-05
5.45e-05
5.48826e-05
5.52761e-05
5.56686e-05
5.60501e-05
5.64089e-05
5.67403e-05
5.70386e-05
5.72972e-05
5.75096e-05
5.76689e-05
5.77668e-05
5.77922e-05
5.76213e-05
5.72418e-05
5.67481e-05
5.62003e-05
5.5643e-05
5.51302e-05
5.47445e-05
5.46164e-05
5.49039e-05
5.57551e-05
5.72687e-05
5.94634e-05
6.22635e-05
6.55024e-05
6.89501e-05
7.2352e-05
7.54697e-05
3.33255e-05
3.96715e-05
4.27798e-05
4.41365e-05
4.47052e-05
4.49869e-05
4.52122e-05
4.54724e-05
4.57942e-05
4.61767e-05
4.66104e-05
4.70843e-05
4.75864e-05
4.8106e-05
4.86342e-05
4.91611e-05
4.96814e-05
5.01901e-05
5.06809e-05
5.11477e-05
5.15832e-05
5.19791e-05
5.23098e-05
5.24395e-05
5.24272e-05
5.2314e-05
5.21425e-05
5.19642e-05
5.18532e-05
5.192e-05
5.23197e-05
5.32331e-05
5.48255e-05
5.7199e-05
6.03553e-05
6.41806e-05
6.84591e-05
7.29102e-05
7.72365e-05
8.11704e-05
2.74887e-05
3.2978e-05
3.57925e-05
3.70934e-05
3.76876e-05
3.80163e-05
3.82933e-05
3.86091e-05
3.8994e-05
3.94509e-05
3.99732e-05
4.05518e-05
4.11763e-05
4.18376e-05
4.25276e-05
4.32381e-05
4.39636e-05
4.46993e-05
4.54396e-05
4.61784e-05
4.69089e-05
4.7622e-05
4.82536e-05
4.87228e-05
4.90856e-05
4.93624e-05
4.95877e-05
4.98212e-05
5.01588e-05
5.07431e-05
5.17635e-05
5.34321e-05
5.59357e-05
5.93784e-05
6.37373e-05
6.88493e-05
7.4434e-05
8.01449e-05
8.56297e-05
9.05851e-05
2.27005e-05
2.73613e-05
2.98612e-05
3.10843e-05
3.16926e-05
3.20663e-05
3.23988e-05
3.27771e-05
3.32334e-05
3.37738e-05
3.43942e-05
3.50873e-05
3.58446e-05
3.66582e-05
3.7521e-05
3.84261e-05
3.93683e-05
4.0343e-05
4.13453e-05
4.23696e-05
4.34094e-05
4.44497e-05
4.53842e-05
4.62106e-05
4.69553e-05
4.76319e-05
4.82746e-05
4.89551e-05
4.97956e-05
5.09774e-05
5.27344e-05
5.53201e-05
5.89484e-05
6.37239e-05
6.95906e-05
7.63208e-05
8.35518e-05
9.08539e-05
9.7806e-05
0.00010406
1.87818e-05
2.26617e-05
2.4838e-05
2.59652e-05
2.65755e-05
2.69896e-05
2.73785e-05
2.78233e-05
2.83567e-05
2.89869e-05
2.97123e-05
3.0527e-05
3.14244e-05
3.23976e-05
3.34408e-05
3.45481e-05
3.57148e-05
3.69369e-05
3.82102e-05
3.95297e-05
4.08897e-05
4.22526e-05
4.35045e-05
4.46918e-05
4.58229e-05
4.69093e-05
4.79913e-05
4.91583e-05
5.05658e-05
5.24431e-05
5.50809e-05
5.87862e-05
6.3807e-05
7.02471e-05
7.80063e-05
8.67746e-05
9.60858e-05
0.000105407
0.000114232
0.000122156
1.55819e-05
1.87425e-05
2.05974e-05
2.16156e-05
2.22162e-05
2.26647e-05
2.31087e-05
2.36217e-05
2.42354e-05
2.49597e-05
2.57945e-05
2.67357e-05
2.77779e-05
2.89157e-05
3.01442e-05
3.14586e-05
3.28551e-05
3.43301e-05
3.58806e-05
3.75026e-05
3.91888e-05
4.08424e-05
4.24337e-05
4.39888e-05
4.55123e-05
4.70202e-05
4.85658e-05
5.02643e-05
5.23143e-05
5.50062e-05
5.87031e-05
6.37801e-05
7.05285e-05
7.90497e-05
8.91863e-05
0.000100525
0.000112471
0.000124365
0.000135599
0.000145694
1.29737e-05
1.54865e-05
1.70316e-05
1.79332e-05
1.85145e-05
1.89908e-05
1.94871e-05
2.00682e-05
2.0764e-05
2.15848e-05
2.2532e-05
2.36027e-05
2.4793e-05
2.60984e-05
2.75153e-05
2.904e-05
3.06693e-05
3.24009e-05
3.4233e-05
3.61622e-05
3.8162e-05
4.01044e-05
4.20341e-05
4.39578e-05
4.58785e-05
4.78206e-05
4.98569e-05
5.21381e-05
5.49191e-05
5.85689e-05
6.35426e-05
7.03028e-05
7.91956e-05
9.03192e-05
0.000103444
0.000118029
0.000133323
0.000148516
0.000162873
0.000175821
1.08502e-05
1.27922e-05
1.40477e-05
1.48307e-05
1.53857e-05
1.58841e-05
1.64295e-05
1.70779e-05
1.78563e-05
1.87752e-05
1.98366e-05
2.1039e-05
2.23793e-05
2.38545e-05
2.54617e-05
2.71985e-05
2.90627e-05
3.10529e-05
3.31694e-05
3.54171e-05
3.76661e-05
3.99152e-05
4.21858e-05
4.44783e-05
4.68001e-05
4.91892e-05
5.17457e-05
5.46671e-05
5.82817e-05
6.30588e-05
6.95721e-05
7.83964e-05
8.99485e-05
0.000104325
0.000121208
0.000139901
0.000159469
0.000178918
0.000197363
0.0002141
9.12155e-06
1.05717e-05
1.15644e-05
1.22326e-05
1.27578e-05
1.32743e-05
1.38663e-05
1.45812e-05
1.54427e-05
1.64609e-05
1.76384e-05
1.89742e-05
2.04664e-05
2.2113e-05
2.3912e-05
2.58621e-05
2.79623e-05
3.0212e-05
3.26159e-05
3.51243e-05
3.76316e-05
4.01855e-05
4.27918e-05
4.54495e-05
4.81737e-05
5.10212e-05
5.41279e-05
5.77523e-05
6.23164e-05
6.84185e-05
7.67838e-05
8.81319e-05
0.000102974
0.000121409
0.000143019
0.000166926
0.000191975
0.000216965
0.000240821
0.000262658
7.71224e-06
8.74887e-06
9.51036e-06
1.0073e-05
1.05692e-05
1.11024e-05
1.17402e-05
1.25218e-05
1.34677e-05
1.45873e-05
1.58832e-05
1.73549e-05
1.90012e-05
2.08211e-05
2.28137e-05
2.49783e-05
2.73153e-05
2.98243e-05
3.2518e-05
3.52163e-05
3.79851e-05
4.08372e-05
4.37697e-05
4.67843e-05
4.99076e-05
5.32215e-05
5.6907e-05
6.12999e-05
6.69415e-05
7.45932e-05
8.51745e-05
9.9593e-05
0.000118487
0.000141974
0.000169527
0.000200066
0.000232194
0.000264464
0.000295581
0.000324121
6.55936e-06
7.25745e-06
7.82295e-06
8.29431e-06
8.76652e-06
9.31861e-06
1.0004e-05
1.08548e-05
1.18884e-05
1.3113e-05
1.45312e-05
1.61427e-05
1.79465e-05
1.99427e-05
2.21311e-05
2.45118e-05
2.70862e-05
2.98825e-05
3.27199e-05
3.56399e-05
3.86683e-05
4.18055e-05
4.50483e-05
4.84049e-05
5.19176e-05
5.56992e-05
5.99873e-05
6.52138e-05
7.2068e-05
8.15173e-05
9.47282e-05
0.000112853
0.000136707
0.000166454
0.000201469
0.000240467
0.000281801
0.000323748
0.000364618
0.00040069
5.61065e-06
6.04027e-06
6.44701e-06
6.84562e-06
7.30358e-06
7.88084e-06
8.6194e-06
9.54516e-06
1.06725e-05
1.20086e-05
1.35556e-05
1.53128e-05
1.72792e-05
1.94563e-05
2.18439e-05
2.44423e-05
2.72812e-05
3.02099e-05
3.32225e-05
3.63617e-05
3.96335e-05
4.30342e-05
4.65635e-05
5.02389e-05
5.41222e-05
5.83635e-05
6.32692e-05
6.93875e-05
7.75901e-05
8.90993e-05
0.000105394
0.000127944
0.000157812
0.000195267
0.000239628
0.000289435
0.000342827
0.000397801
0.000451118
0.000496455
4.82302e-06
5.04819e-06
5.33419e-06
5.68237e-06
6.14047e-06
6.75392e-06
7.55561e-06
8.56618e-06
9.79722e-06
1.12549e-05
1.29405e-05
1.48524e-05
1.69889e-05
1.93531e-05
2.19443e-05
2.47957e-05
2.77594e-05
3.08118e-05
3.40047e-05
3.73472e-05
4.08372e-05
4.44714e-05
4.82546e-05
5.22159e-05
5.64397e-05
6.112e-05
6.66441e-05
7.36988e-05
8.33747e-05
9.72048e-05
0.000117056
0.000144812
0.000181882
0.00022874
0.000284744
0.000348367
0.000417669
0.000490261
0.000557905
0.000616503
4.1613e-06
4.23928e-06
4.44249e-06
4.76576e-06
5.24297e-06
5.90869e-06
6.78862e-06
7.89887e-06
9.2483e-06
1.0842e-05
1.26801e-05
1.47592e-05
1.70753e-05
1.96349e-05
2.24815e-05
2.54324e-05
2.84824e-05
3.16833e-05
3.50443e-05
3.85637e-05
4.22383e-05
4.60675e-05
5.00625e-05
5.42653e-05
5.87861e-05
6.38686e-05
6.99924e-05
7.80048e-05
8.92526e-05
0.000105639
0.000129507
0.000163265
0.000208811
0.000266983
0.000337365
0.000418604
0.000508858
0.000602511
0.000690448
0.00076765
3.59706e-06
3.57828e-06
3.7359e-06
4.06248e-06
4.58226e-06
5.32164e-06
6.30052e-06
7.53093e-06
9.0187e-06
1.0768e-05
1.27768e-05
1.5039e-05
1.75477e-05
2.03808e-05
2.32798e-05
2.62979e-05
2.94747e-05
3.28154e-05
3.63179e-05
3.99789e-05
4.37963e-05
4.77731e-05
5.19277e-05
5.63157e-05
6.10749e-05
6.65036e-05
7.31831e-05
8.21404e-05
9.50133e-05
0.000114134
0.000142409
0.000182906
0.000238192
0.000309706
0.000397591
0.000501134
0.000618473
0.000738521
0.000855081
0.000957813
3.10779e-06
3.03612e-06
3.18425e-06
3.54473e-06
4.13487e-06
4.9747e-06
6.07912e-06
7.45609e-06
9.10759e-06
1.10368e-05
1.32391e-05
1.57302e-05
1.85162e-05
2.13355e-05
2.43055e-05
2.74399e-05
3.07363e-05
3.41907e-05
3.77993e-05
4.15592e-05
4.54701e-05
4.95389e-05
5.37906e-05
5.82951e-05
6.32184e-05
6.89155e-05
7.60762e-05
8.59208e-05
0.000100405
0.000122337
0.000155274
0.000203074
0.000269185
0.000355976
0.000464653
0.000595992
0.000744279
0.000901716
0.00105761
0.00119641
2.67604e-06
2.58948e-06
2.76319e-06
3.19032e-06
3.8828e-06
4.85519e-06
6.11762e-06
7.67353e-06
9.51935e-06
1.16578e-05
1.41407e-05
1.68329e-05
1.9604e-05
2.25306e-05
2.56188e-05
2.88618e-05
3.2253e-05
3.57868e-05
3.94596e-05
4.32696e-05
4.72181e-05
5.13152e-05
5.55925e-05
6.01329e-05
6.51302e-05
7.09958e-05
7.85292e-05
8.91492e-05
0.000105143
0.000129824
0.000167453
0.000222794
0.000300386
0.000403908
0.000536159
0.000699238
0.000886533
0.00109235
0.00130065
0.00150171
2.2888e-06
2.2206e-06
2.45419e-06
2.9829e-06
3.81376e-06
4.95601e-06
6.41457e-06
8.18759e-06
1.02699e-05
1.27504e-05
1.53475e-05
1.80791e-05
2.09755e-05
2.40268e-05
2.72217e-05
3.055e-05
3.4004e-05
3.7578e-05
4.12685e-05
4.50745e-05
4.89987e-05
5.30539e-05
5.72771e-05
6.17627e-05
6.67298e-05
7.26428e-05
8.04063e-05
9.16316e-05
0.00010893
0.000136118
0.000178168
0.000240788
0.000329751
0.000450426
0.00060827
0.000803691
0.00103877
0.00130048
0.00159224
0.00189844
1.93694e-06
1.91698e-06
2.24463e-06
2.91225e-06
3.92158e-06
5.27593e-06
6.97405e-06
9.0475e-06
1.149e-05
1.40172e-05
1.67315e-05
1.96172e-05
2.26524e-05
2.5818e-05
2.90993e-05
3.24846e-05
3.59657e-05
3.95367e-05
4.31944e-05
4.6938e-05
5.07716e-05
5.47095e-05
5.8793e-05
6.31256e-05
6.79475e-05
7.37696e-05
8.15901e-05
9.31952e-05
0.000111492
0.000140751
0.000186591
0.000255592
0.000354669
0.000490696
0.00067103
0.000898918
0.00118343
0.00151536
0.00192768
0.00242212
1.61473e-06
1.67115e-06
2.12784e-06
2.9745e-06
4.20647e-06
5.81999e-06
7.87287e-06
1.02464e-05
1.27772e-05
1.55066e-05
1.84107e-05
2.14592e-05
2.4626e-05
2.78895e-05
3.1233e-05
3.46437e-05
3.81128e-05
4.16343e-05
4.52052e-05
4.88251e-05
5.24985e-05
5.6241e-05
6.00959e-05
6.41733e-05
6.87291e-05
7.4311e-05
8.19948e-05
9.37108e-05
0.00011261
0.00014333
0.000191993
0.000265823
0.000372595
0.000520534
0.000716331
0.000970378
0.00129451
0.00170445
0.00227597
0.00311067
0.00180024
0.00180383
0.00180707
0.00180994
0.00181244
0.00181454
0.00181625
0.00181754
0.00181843
0.00181896
0.00181896
0.00181843
0.00181754
0.00181625
0.00181454
0.00181244
0.00180994
0.00180707
0.00180383
0.00180024
0.00154023
0.00154342
0.00154629
0.00154883
0.00155103
0.00155288
0.00155437
0.0015555
0.00155628
0.00155675
0.00155675
0.00155628
0.0015555
0.00155437
0.00155288
0.00155103
0.00154883
0.00154629
0.00154342
0.00154023
0.00130952
0.00131215
0.00131451
0.00131658
0.00131836
0.00131985
0.00132104
0.00132193
0.00132254
0.00132287
0.00132287
0.00132254
0.00132193
0.00132104
0.00131985
0.00131836
0.00131658
0.00131451
0.00131215
0.00130952
0.00110559
0.00110757
0.00110931
0.00111082
0.0011121
0.00111315
0.00111398
0.00111458
0.00111498
0.00111519
0.00111519
0.00111498
0.00111458
0.00111398
0.00111315
0.0011121
0.00111082
0.00110931
0.00110757
0.00110559
0.000926424
0.000927703
0.000928798
0.000929716
0.000930463
0.000931051
0.000931488
0.000931787
0.000931959
0.000932029
0.000932029
0.000931959
0.000931787
0.000931489
0.000931051
0.000930463
0.000929716
0.000928798
0.000927703
0.000926424
0.000770307
0.000770925
0.000771401
0.000771748
0.000771981
0.000772118
0.000772176
0.000772173
0.000772125
0.00077206
0.00077206
0.000772126
0.000772173
0.000772176
0.000772118
0.000771981
0.000771748
0.000771401
0.000770925
0.000770307
0.000635655
0.000635699
0.000635635
0.000635477
0.00063525
0.000634981
0.000634697
0.000634421
0.000634176
0.000633991
0.000633991
0.000634176
0.000634421
0.000634697
0.000634981
0.00063525
0.000635477
0.000635635
0.000635699
0.000635655
0.000520856
0.000520452
0.000519956
0.000519389
0.000518783
0.000518175
0.000517602
0.000517096
0.000516685
0.000516403
0.000516403
0.000516685
0.000517096
0.000517602
0.000518175
0.000518783
0.000519389
0.000519956
0.000520452
0.000520856
0.000424201
0.000423487
0.000422685
0.000421819
0.000420926
0.000420055
0.000419255
0.000418568
0.000418028
0.000417673
0.000417673
0.000418028
0.000418568
0.000419255
0.000420055
0.000420926
0.000421819
0.000422685
0.000423487
0.000424201
0.000343868
0.000342987
0.000342005
0.000340948
0.000339862
0.000338805
0.00033784
0.000337019
0.000336385
0.000335977
0.000335977
0.000336385
0.000337019
0.00033784
0.000338806
0.000339862
0.000340948
0.000342005
0.000342987
0.000343869
0.000277975
0.000277054
0.000276007
0.000274861
0.000273668
0.000272497
0.000271423
0.000270511
0.000269811
0.00026937
0.00026937
0.000269811
0.000270511
0.000271423
0.000272497
0.000273668
0.000274861
0.000276007
0.000277054
0.000277975
0.000224644
0.000223794
0.000222782
0.000221634
0.000220407
0.000219183
0.000218049
0.000217081
0.000216341
0.000215877
0.000215877
0.000216341
0.000217081
0.000218049
0.000219184
0.000220408
0.000221634
0.000222782
0.000223794
0.000224644
0.000182088
0.000181395
0.0001805
0.000179422
0.000178224
0.000176998
0.000175842
0.000174848
0.000174084
0.000173607
0.000173607
0.000174084
0.000174848
0.000175842
0.000176998
0.000178224
0.000179422
0.0001805
0.000181395
0.000182088
0.000148663
0.000148201
0.000147488
0.000146541
0.000145424
0.000144239
0.000143095
0.000142095
0.000141319
0.000140828
0.000140828
0.000141319
0.000142095
0.000143095
0.000144239
0.000145424
0.000146541
0.000147488
0.000148201
0.000148663
0.000122971
0.000122777
0.000122284
0.000121505
0.000120506
0.000119394
0.000118289
0.000117304
0.000116526
0.000116024
0.000116024
0.000116526
0.000117304
0.000118289
0.000119394
0.000120506
0.000121505
0.000122284
0.000122777
0.000122971
0.000103772
0.000103876
0.000103633
0.000103052
0.000102201
0.000101192
0.000100153
9.9203e-05
9.84367e-05
9.79286e-05
9.79286e-05
9.84368e-05
9.92031e-05
0.000100153
0.000101192
0.000102201
0.000103052
0.000103633
0.000103876
0.000103772
9.00753e-05
9.04997e-05
9.05296e-05
9.0172e-05
8.94956e-05
8.86184e-05
8.76712e-05
8.67785e-05
8.60388e-05
8.55311e-05
8.55311e-05
8.60388e-05
8.67786e-05
8.76713e-05
8.86185e-05
8.94957e-05
9.0172e-05
9.05296e-05
9.04998e-05
9.00754e-05
8.1116e-05
8.18843e-05
8.2209e-05
8.20982e-05
8.16231e-05
8.09065e-05
8.00801e-05
7.92695e-05
7.85738e-05
7.80754e-05
7.80754e-05
7.85739e-05
7.92695e-05
8.00801e-05
8.09066e-05
8.16232e-05
8.20982e-05
8.2209e-05
8.18843e-05
8.11161e-05
7.63408e-05
7.74835e-05
7.81298e-05
7.82931e-05
7.80499e-05
7.75279e-05
7.68561e-05
7.61572e-05
7.55273e-05
7.50493e-05
7.50494e-05
7.55273e-05
7.61572e-05
7.68561e-05
7.75279e-05
7.805e-05
7.82931e-05
7.81299e-05
7.74836e-05
7.63409e-05
7.53952e-05
7.69577e-05
7.79637e-05
7.84381e-05
7.84661e-05
7.81816e-05
7.77066e-05
7.71564e-05
7.66193e-05
7.61764e-05
7.61764e-05
7.66193e-05
7.71564e-05
7.77066e-05
7.81816e-05
7.84661e-05
7.84381e-05
7.79638e-05
7.69578e-05
7.53953e-05
7.8113e-05
8.01636e-05
8.15867e-05
8.24258e-05
8.27794e-05
8.27897e-05
8.2566e-05
8.22116e-05
8.18018e-05
8.14129e-05
8.14129e-05
8.18018e-05
8.22116e-05
8.2566e-05
8.27898e-05
8.27794e-05
8.24259e-05
8.15867e-05
8.01637e-05
7.8113e-05
8.4512e-05
8.7152e-05
8.90785e-05
9.03622e-05
9.11187e-05
9.15026e-05
9.16022e-05
9.15039e-05
9.12641e-05
9.09527e-05
9.09527e-05
9.12641e-05
9.15039e-05
9.16022e-05
9.15027e-05
9.11188e-05
9.03623e-05
8.90785e-05
8.7152e-05
8.4512e-05
9.47991e-05
9.81758e-05
0.000100734
0.00010258
0.000103851
0.000104716
0.000105236
0.000105438
0.000105352
0.000105103
0.000105103
0.000105352
0.000105438
0.000105236
0.000104716
0.000103851
0.00010258
0.000100734
9.81758e-05
9.47992e-05
0.000109388
0.000113712
0.000117089
0.000119671
0.000121616
0.000122951
0.000123833
0.000124314
0.000124407
0.00012424
0.00012424
0.000124407
0.000124314
0.000123833
0.000122951
0.000121616
0.000119671
0.000117089
0.000113712
0.000109388
0.000128932
0.000134501
0.000138968
0.000142439
0.000145029
0.00014682
0.000148095
0.000148922
0.000149293
0.000149267
0.000149267
0.000149293
0.000148922
0.000148095
0.000146821
0.000145029
0.000142439
0.000138968
0.000134501
0.000128932
0.000154378
0.000161613
0.000167419
0.000171768
0.000174951
0.000177464
0.000179409
0.000180757
0.000181473
0.000181623
0.000181623
0.000181473
0.000180757
0.000179409
0.000177464
0.000174951
0.000171768
0.000167419
0.000161613
0.000154378
0.000187049
0.000196419
0.000203589
0.00020891
0.000213143
0.000216632
0.000219399
0.000221367
0.00022249
0.000222847
0.000222847
0.00022249
0.000221367
0.0002194
0.000216632
0.000213143
0.00020891
0.000203589
0.000196419
0.000187049
0.000228706
0.000240419
0.000249108
0.000255948
0.000261592
0.000266292
0.000270023
0.000272693
0.000274269
0.00027486
0.00027486
0.000274269
0.000272693
0.000270023
0.000266292
0.000261592
0.000255948
0.000249108
0.000240419
0.000228706
0.000281374
0.000295521
0.000306462
0.000315355
0.000322761
0.000328877
0.00033367
0.000337081
0.000339128
0.000339962
0.000339962
0.000339128
0.000337081
0.00033367
0.000328877
0.000322761
0.000315355
0.000306462
0.000295521
0.000281374
0.000347035
0.000364723
0.000378706
0.000390194
0.000399651
0.000407286
0.000413137
0.000417242
0.000419713
0.000420765
0.000420765
0.000419713
0.000417242
0.000413137
0.000407287
0.000399651
0.000390194
0.000378706
0.000364723
0.000347035
0.000429397
0.000451806
0.000469646
0.000484169
0.000495766
0.000504809
0.000511516
0.000516112
0.000518854
0.000520045
0.000520045
0.000518854
0.000516112
0.000511516
0.00050481
0.000495766
0.000484169
0.000469646
0.000451806
0.000429397
0.000532995
0.000561495
0.000583891
0.000601567
0.000614982
0.000624929
0.000631968
0.000636611
0.000639314
0.000640488
0.000640488
0.000639314
0.000636611
0.000631968
0.000624929
0.000614982
0.000601567
0.000583891
0.000561495
0.000532995
0.000663655
0.000699653
0.000726821
0.000747001
0.000761254
0.000771018
0.000777401
0.000781314
0.000783459
0.000784355
0.000784355
0.000783459
0.000781314
0.000777401
0.000771018
0.000761254
0.000747001
0.000726821
0.000699653
0.000663655
0.000828716
0.00087321
0.000904462
0.000925271
0.000938311
0.000945951
0.000950088
0.000952094
0.000952904
0.000953134
0.000953134
0.000952904
0.000952094
0.000950088
0.000945951
0.000938311
0.000925271
0.000904462
0.00087321
0.000828716
0.00103747
0.00109088
0.00112367
0.0011413
0.00114926
0.00115164
0.0011512
0.00114969
0.00114817
0.00114726
0.00114726
0.00114817
0.00114969
0.0011512
0.00115164
0.00114926
0.0011413
0.00112367
0.00109088
0.00103747
0.00130466
0.00136517
0.00139218
0.00139899
0.00139572
0.00138843
0.00138046
0.00137356
0.00136862
0.00136607
0.00136607
0.00136862
0.00137356
0.00138046
0.00138843
0.00139572
0.00139899
0.00139218
0.00136517
0.00130466
0.00165589
0.00171318
0.00171786
0.00170047
0.00167711
0.00165473
0.00163606
0.00162195
0.0016126
0.00160799
0.00160799
0.0016126
0.00162195
0.00163606
0.00165473
0.00167711
0.00170047
0.00171786
0.00171318
0.00165589
0.00214552
0.00216119
0.00210688
0.0020438
0.0019894
0.00194665
0.00191476
0.00189229
0.00187802
0.00187116
0.00187116
0.00187802
0.00189229
0.00191476
0.00194665
0.0019894
0.0020438
0.00210688
0.00216119
0.00214552
0.00293212
0.00274461
0.00255424
0.00241775
0.00232335
0.00225781
0.00221243
0.00218189
0.00216305
0.00215416
0.00215416
0.00216305
0.00218189
0.00221243
0.00225781
0.00232335
0.00241775
0.00255424
0.00274461
0.00293212
0.00466391
0.00344971
0.00301431
0.00279402
0.00266376
0.00258037
0.00252519
0.00248902
0.00246703
0.00245676
0.00245676
0.00246703
0.00248902
0.00252519
0.00258037
0.00266376
0.00279402
0.00301431
0.00344971
0.00466391
0.00179634
0.00179213
0.00178764
0.0017829
0.00177793
0.00177276
0.0017674
0.00176189
0.00175622
0.00175038
0.00174445
0.00173847
0.00173245
0.00172643
0.00172043
0.00171446
0.00170855
0.00170272
0.00169699
0.00169138
0.0016859
0.00168057
0.00167541
0.00167043
0.00166565
0.00166107
0.00165672
0.0016526
0.00164872
0.00164509
0.00164172
0.00163863
0.00163581
0.00163327
0.00163102
0.00162908
0.00162745
0.00162607
0.00162546
0.00162558
0.00153674
0.00153297
0.00152893
0.00152465
0.00152015
0.00151545
0.00151056
0.0015055
0.00150029
0.00149486
0.00148918
0.00148343
0.00147764
0.00147184
0.00146607
0.00146033
0.00145465
0.00144905
0.00144355
0.00143816
0.00143291
0.0014278
0.00142286
0.00141809
0.00141352
0.00140916
0.00140501
0.00140109
0.00139741
0.00139398
0.0013908
0.00138788
0.00138521
0.0013828
0.00138064
0.00137871
0.00137701
0.00137565
0.00137559
0.00137971
0.00130662
0.00130347
0.00130007
0.00129645
0.00129262
0.00128859
0.00128438
0.00128
0.00127546
0.00127078
0.00126575
0.00126043
0.00125503
0.00124959
0.00124417
0.00123877
0.00123342
0.00122814
0.00122294
0.00121784