/*--------------------------------*- C++ -*----------------------------------*\
  =========                 |
  \\      /  F ield         | OpenFOAM: The Open Source CFD Toolbox
   \\    /   O peration     | Website:  https://openfoam.org
    \\  /    A nd           | Version:  6
     \\/     M anipulation  |
\*---------------------------------------------------------------------------*/
FoamFile
{
    version     2.0;
    format      ascii;
    class       volVectorField;
    location    "20";
    object      U;
}
// * * * * * * * * * * * * * * * * * * * * * * * * * * * * * * * * * * * * * //

dimensions      [0 1 -1 0 0 0 0];

internalField   nonuniform List<vector> 
8800
(
(-4.29467e-05 -0.00134732 0)
(-8.76711e-05 -0.00185385 0)
(-8.75883e-05 -0.0019268 0)
(-8.72275e-05 -0.00193173 0)
(-9.63744e-05 -0.00192821 0)
(-0.000111314 -0.0019258 0)
(-0.000128974 -0.00192514 0)
(-0.000147924 -0.00192574 0)
(-0.000167528 -0.00192721 0)
(-0.000187493 -0.00192933 0)
(-0.000207689 -0.00193197 0)
(-0.000228056 -0.00193506 0)
(-0.000248569 -0.00193857 0)
(-0.000269206 -0.00194246 0)
(-0.000289939 -0.00194671 0)
(-0.000310724 -0.00195132 0)
(-0.0003315 -0.00195628 0)
(-0.000352179 -0.0019616 0)
(-0.000372654 -0.00196728 0)
(-0.00039279 -0.00197333 0)
(-0.000412432 -0.00197976 0)
(-0.000431405 -0.00198659 0)
(-0.000449519 -0.00199381 0)
(-0.000466573 -0.00200145 0)
(-0.000482363 -0.00200948 0)
(-0.000496692 -0.00201791 0)
(-0.00050937 -0.00202672 0)
(-0.000520224 -0.00203588 0)
(-0.00052909 -0.00204538 0)
(-0.000535818 -0.00205518 0)
(-0.000540269 -0.00206519 0)
(-0.000542269 -0.00207513 0)
(-0.000541615 -0.00208433 0)
(-0.000537835 -0.00209335 0)
(-0.000530642 -0.0021026 0)
(-0.000519867 -0.00211214 0)
(-0.000505386 -0.00212194 0)
(-0.000487136 -0.002132 0)
(-0.000465104 -0.00214228 0)
(-0.000439328 -0.00215274 0)
(5.76698e-06 6.99892e-05 0)
(-1.9482e-05 7.21051e-05 0)
(-8.74943e-05 8.828e-05 0)
(-0.000153115 0.000101305 0)
(-0.000210404 0.000109477 0)
(-0.000264352 0.000115287 0)
(-0.000317409 0.00011983 0)
(-0.000370302 0.000123699 0)
(-0.000423253 0.000127233 0)
(-0.000476318 0.000130616 0)
(-0.000529485 0.000133942 0)
(-0.000582712 0.00013725 0)
(-0.000635936 0.000140548 0)
(-0.00068906 0.000143822 0)
(-0.000741952 0.00014704 0)
(-0.000794436 0.000150163 0)
(-0.000846287 0.000153144 0)
(-0.000897236 0.00015593 0)
(-0.000946962 0.000158467 0)
(-0.000995104 0.0001607 0)
(-0.00104127 0.000162578 0)
(-0.00108502 0.000164053 0)
(-0.00112593 0.000165087 0)
(-0.00116355 0.000165651 0)
(-0.00119743 0.000165725 0)
(-0.00122714 0.000165305 0)
(-0.00125231 0.000164393 0)
(-0.00127256 0.000162993 0)
(-0.00128756 0.000161105 0)
(-0.00129695 0.000158726 0)
(-0.00130042 0.000155848 0)
(-0.0012978 0.000152362 0)
(-0.00128835 0.000147548 0)
(-0.00127151 0.000141579 0)
(-0.00124699 0.000134799 0)
(-0.00121464 0.000127355 0)
(-0.00117443 0.000119351 0)
(-0.00112641 0.000110878 0)
(-0.00107073 0.000102018 0)
(-0.0010076 9.28517e-05 0)
(2.6687e-06 0.000170151 0)
(-3.39776e-05 0.000243232 0)
(-0.000121612 0.000253904 0)
(-0.000214982 0.00025432 0)
(-0.000302757 0.00025357 0)
(-0.000386834 0.000252767 0)
(-0.000468868 0.000251912 0)
(-0.000549676 0.000250958 0)
(-0.000629729 0.000249909 0)
(-0.000709262 0.000248789 0)
(-0.000788334 0.000247609 0)
(-0.000866896 0.000246355 0)
(-0.000944819 0.000244988 0)
(-0.0010219 0.000243446 0)
(-0.00109788 0.00024165 0)
(-0.00117244 0.000239512 0)
(-0.00124518 0.000236939 0)
(-0.00131568 0.000233838 0)
(-0.00138346 0.000230125 0)
(-0.00144798 0.000225724 0)
(-0.00150871 0.000220575 0)
(-0.00156508 0.000214638 0)
(-0.00161652 0.000207896 0)
(-0.00166247 0.000200355 0)
(-0.00170239 0.00019205 0)
(-0.00173579 0.000183035 0)
(-0.00176219 0.000173379 0)
(-0.00178118 0.000163145 0)
(-0.00179235 0.000152368 0)
(-0.00179531 0.00014103 0)
(-0.00178975 0.00012897 0)
(-0.00177497 0.000115835 0)
(-0.00175039 0.00010165 0)
(-0.00171611 8.68331e-05 0)
(-0.00167211 7.17478e-05 0)
(-0.00161849 5.66578e-05 0)
(-0.00155545 4.17797e-05 0)
(-0.00148325 2.72999e-05 0)
(-0.00140224 1.33825e-05 0)
(-0.0013128 1.76081e-07 0)
(-1.41417e-05 0.000115851 0)
(-7.07885e-05 0.000195877 0)
(-0.00016518 0.000214308 0)
(-0.000269643 0.000215352 0)
(-0.000374595 0.000212791 0)
(-0.000478562 0.000210165 0)
(-0.000581155 0.000208095 0)
(-0.000682359 0.000206454 0)
(-0.00078231 0.000205025 0)
(-0.000881081 0.000203635 0)
(-0.000978631 0.00020215 0)
(-0.00107481 0.000200445 0)
(-0.00116939 0.000198389 0)
(-0.00126206 0.000195844 0)
(-0.00135243 0.000192658 0)
(-0.00144005 0.000188679 0)
(-0.00152445 0.000183753 0)
(-0.00160508 0.000177736 0)
(-0.00168137 0.000170499 0)
(-0.00175274 0.000161934 0)
(-0.00181858 0.00015196 0)
(-0.00187829 0.000140528 0)
(-0.00193129 0.000127623 0)
(-0.00197702 0.000113269 0)
(-0.00201496 9.75248e-05 0)
(-0.00204462 8.04809e-05 0)
(-0.00206558 6.2243e-05 0)
(-0.00207746 4.29103e-05 0)
(-0.00207988 2.25548e-05 0)
(-0.00207245 1.22333e-06 0)
(-0.00205465 -2.11171e-05 0)
(-0.00202581 -4.48508e-05 0)
(-0.00198627 -6.96826e-05 0)
(-0.00193632 -9.51306e-05 0)
(-0.00187629 -0.000120788 0)
(-0.00180653 -0.000146324 0)
(-0.00172746 -0.000171461 0)
(-0.00163952 -0.000195962 0)
(-0.00154317 -0.000219621 0)
(-0.00143888 -0.000242255 0)
(-2.07968e-05 0.000151772 0)
(-8.81914e-05 0.000269604 0)
(-0.000190624 0.000308383 0)
(-0.000304507 0.000317791 0)
(-0.000421121 0.000317867 0)
(-0.000538084 0.000315664 0)
(-0.000654166 0.00031329 0)
(-0.00076879 0.00031115 0)
(-0.000881724 0.000309146 0)
(-0.0009928 0.000307073 0)
(-0.00110181 0.000304717 0)
(-0.00120847 0.000301867 0)
(-0.00131244 0.000298314 0)
(-0.00141331 0.000293851 0)
(-0.00151061 0.00028827 0)
(-0.00160384 0.000281367 0)
(-0.00169245 0.000272953 0)
(-0.00177587 0.000262853 0)
(-0.00185351 0.000250923 0)
(-0.00192481 0.000237047 0)
(-0.00198917 0.000221149 0)
(-0.00204605 0.000203194 0)
(-0.00209491 0.000183194 0)
(-0.00213527 0.000161209 0)
(-0.00216668 0.000137341 0)
(-0.00218875 0.000111727 0)
(-0.00220114 8.45185e-05 0)
(-0.00220358 5.58308e-05 0)
(-0.00219572 2.57088e-05 0)
(-0.00217706 -5.90264e-06 0)
(-0.00214714 -3.94025e-05 0)
(-0.00210629 -7.42509e-05 0)
(-0.00205495 -0.000109847 0)
(-0.00199362 -0.000145689 0)
(-0.00192286 -0.000181354 0)
(-0.00184321 -0.000216487 0)
(-0.00175524 -0.000250797 0)
(-0.00165949 -0.000284046 0)
(-0.00155647 -0.00031604 0)
(-0.00144669 -0.000346612 0)
(-2.15553e-05 0.000206447 0)
(-9.26705e-05 0.0003689 0)
(-0.000201042 0.000426789 0)
(-0.000321513 0.0004439 0)
(-0.000445173 0.000446363 0)
(-0.000569521 0.000444063 0)
(-0.000693072 0.000440432 0)
(-0.000814956 0.000436466 0)
(-0.000934674 0.000432292 0)
(-0.00105185 0.000427755 0)
(-0.00116612 0.000422612 0)
(-0.00127708 0.000416604 0)
(-0.0013843 0.000409468 0)
(-0.00148731 0.000400948 0)
(-0.0015856 0.000390798 0)
(-0.00167864 0.000378784 0)
(-0.00176589 0.000364698 0)
(-0.0018468 0.000348359 0)
(-0.00192084 0.000329622 0)
(-0.00198747 0.000308386 0)
(-0.0020462 0.000284596 0)
(-0.00209657 0.00025825 0)
(-0.00213814 0.000229399 0)
(-0.00217053 0.000198152 0)
(-0.0021934 0.000164663 0)
(-0.0022065 0.000129125 0)
(-0.0022096 9.17218e-05 0)
(-0.00220248 5.25636e-05 0)
(-0.00218472 1.16417e-05 0)
(-0.00215595 -3.12058e-05 0)
(-0.00211654 -7.57093e-05 0)
(-0.00206689 -0.000120993 0)
(-0.0020076 -0.000166411 0)
(-0.00193932 -0.000211444 0)
(-0.00186271 -0.000255658 0)
(-0.00177846 -0.000298702 0)
(-0.00168724 -0.000340304 0)
(-0.00158964 -0.000380269 0)
(-0.00148623 -0.000418454 0)
(-0.00137747 -0.000454749 0)
(-2.06373e-05 0.000257764 0)
(-9.13751e-05 0.000464596 0)
(-0.000201064 0.00054125 0)
(-0.000323525 0.000566008 0)
(-0.000449468 0.000570948 0)
(-0.000576198 0.000568573 0)
(-0.000702035 0.000563532 0)
(-0.000825909 0.000557383 0)
(-0.00094714 0.000550495 0)
(-0.0010652 0.000542795 0)
(-0.00117959 0.000534053 0)
(-0.00128985 0.000523992 0)
(-0.00139547 0.000512325 0)
(-0.00149596 0.000498773 0)
(-0.00159082 0.000483073 0)
(-0.00167953 0.000464986 0)
(-0.00176159 0.000444304 0)
(-0.00183652 0.000420857 0)
(-0.00190387 0.00039452 0)
(-0.00196319 0.000365218 0)
(-0.0020141 0.000332932 0)
(-0.00205624 0.000297699 0)
(-0.00208931 0.00025962 0)
(-0.00211304 0.000218849 0)
(-0.00212722 0.000175594 0)
(-0.0021317 0.00013009 0)
(-0.00212638 8.25256e-05 0)
(-0.00211105 3.29863e-05 0)
(-0.00208503 -1.84946e-05 0)
(-0.00204899 -7.19747e-05 0)
(-0.00200307 -0.000126514 0)
(-0.00194789 -0.000181216 0)
(-0.00188411 -0.000235388 0)
(-0.00181248 -0.000288466 0)
(-0.00173377 -0.000339996 0)
(-0.00164876 -0.000389636 0)
(-0.00155822 -0.000437161 0)
(-0.00146283 -0.000482444 0)
(-0.00136317 -0.000525432 0)
(-0.00125969 -0.000566115 0)
(-1.87907e-05 0.000306003 0)
(-8.59932e-05 0.000557493 0)
(-0.000192569 0.000653993 0)
(-0.000312626 0.000687081 0)
(-0.000436589 0.000694822 0)
(-0.000561436 0.000692469 0)
(-0.000685263 0.000685933 0)
(-0.000806837 0.000677351 0)
(-0.000925347 0.000667352 0)
(-0.00104015 0.000655973 0)
(-0.0011507 0.000643029 0)
(-0.00125645 0.000628257 0)
(-0.00135691 0.000611373 0)
(-0.00145157 0.000592103 0)
(-0.00153997 0.000570191 0)
(-0.00162164 0.000545414 0)
(-0.00169615 0.000517584 0)
(-0.00176312 0.000486559 0)
(-0.00182217 0.000452248 0)
(-0.00187299 0.000414614 0)
(-0.0019153 0.00037368 0)
(-0.00194887 0.00032953 0)
(-0.00197351 0.00028231 0)
(-0.00198906 0.000232222 0)
(-0.00199543 0.000179517 0)
(-0.00199257 0.000124446 0)
(-0.00198043 6.71797e-05 0)
(-0.00195858 7.7572e-06 0)
(-0.00192687 -5.37709e-05 0)
(-0.00188598 -0.000116885 0)
(-0.0018361 -0.000180479 0)
(-0.00177791 -0.000243595 0)
(-0.00171215 -0.000305457 0)
(-0.00163963 -0.000365432 0)
(-0.00156123 -0.000423027 0)
(-0.00147787 -0.000477909 0)
(-0.00139042 -0.000529913 0)
(-0.00129968 -0.000579014 0)
(-0.00120628 -0.000625294 0)
(-0.00111069 -0.000668887 0)
(-1.61549e-05 0.000350232 0)
(-7.72585e-05 0.000645733 0)
(-0.000177101 0.000762948 0)
(-0.000291088 0.00080502 0)
(-0.000409526 0.000815832 0)
(-0.000529012 0.000813491 0)
(-0.000647404 0.000805264 0)
(-0.000763325 0.000793917 0)
(-0.000875863 0.000780374 0)
(-0.000984317 0.000764815 0)
(-0.00108808 0.000747124 0)
(-0.00118663 0.000727078 0)
(-0.00127945 0.000704424 0)
(-0.00136609 0.000678914 0)
(-0.00144612 0.000650321 0)
(-0.00151916 0.000618456 0)
(-0.00158486 0.000583166 0)
(-0.00164293 0.000544351 0)
(-0.0016931 0.000501961 0)
(-0.00173517 0.000456005 0)
(-0.00176896 0.00040655 0)
(-0.00179437 0.000353725 0)
(-0.00181129 0.000297716 0)
(-0.00181967 0.000238762 0)
(-0.0018195 0.00017713 0)
(-0.00181078 0.000113052 0)
(-0.0017934 4.66638e-05 0)
(-0.00176656 -2.19688e-05 0)
(-0.00173133 -9.27846e-05 0)
(-0.00168741 -0.000164658 0)
(-0.00163533 -0.000236422 0)
(-0.0015758 -0.000307024 0)
(-0.00150959 -0.000375572 0)
(-0.0014376 -0.000441334 0)
(-0.00136086 -0.000503753 0)
(-0.00128044 -0.000562493 0)
(-0.00119737 -0.000617457 0)
(-0.00111258 -0.000668758 0)
(-0.00102681 -0.000716658 0)
(-0.00094057 -0.000761493 0)
(-1.30012e-05 0.000388676 0)
(-6.61079e-05 0.00072606 0)
(-0.000156351 0.000864375 0)
(-0.000261298 0.000916035 0)
(-0.000371346 0.000930247 0)
(-0.000482719 0.000927982 0)
(-0.000593033 0.000917944 0)
(-0.000700775 0.000903599 0)
(-0.000804954 0.000886212 0)
(-0.000904826 0.000866136 0)
(-0.00099978 0.000843352 0)
(-0.00108929 0.000817701 0)
(-0.00117288 0.000788979 0)
(-0.00125016 0.000756983 0)
(-0.00132075 0.000721534 0)
(-0.00138436 0.000682487 0)
(-0.00144071 0.000639739 0)
(-0.00148962 0.000593236 0)
(-0.00153091 0.000542977 0)
(-0.00156449 0.000489014 0)
(-0.00159027 0.000431457 0)
(-0.00160822 0.000370472 0)
(-0.00161833 0.000306276 0)
(-0.0016206 0.000239122 0)
(-0.00161507 0.000169266 0)
(-0.00160179 9.6861e-05 0)
(-0.00158051 2.19419e-05 0)
(-0.00155024 -5.52729e-05 0)
(-0.00151245 -0.000134457 0)
(-0.00146665 -0.0002143 0)
(-0.00141343 -0.00029347 0)
(-0.00135349 -0.000370754 0)
(-0.00128764 -0.000445105 0)
(-0.00121691 -0.00051565 0)
(-0.00114246 -0.00058173 0)
(-0.00106555 -0.000642983 0)
(-0.000987416 -0.000699391 0)
(-0.000909168 -0.000751232 0)
(-0.000831677 -0.000799004 0)
(-0.00075554 -0.000843303 0)
(-9.60549e-06 0.000420176 0)
(-5.34587e-05 0.000796092 0)
(-0.00013194 0.00095548 0)
(-0.000225521 0.00101731 0)
(-0.000324939 0.00103538 0)
(-0.000426091 0.00103339 0)
(-0.00052636 0.00102157 0)
(-0.000624099 0.00100415 0)
(-0.000718244 0.000982791 0)
(-0.000808024 0.000958054 0)
(-0.000892834 0.000930044 0)
(-0.000972171 0.000898685 0)
(-0.00104561 0.000863839 0)
(-0.00111281 0.000825365 0)
(-0.00117347 0.00078314 0)
(-0.00122735 0.000737075 0)
(-0.00127428 0.00068712 0)
(-0.00131415 0.000633273 0)
(-0.00134687 0.000575579 0)
(-0.00137241 0.000514131 0)
(-0.00139077 0.000449074 0)
(-0.00140199 0.000380596 0)
(-0.00140607 0.000308928 0)
(-0.00140305 0.000234317 0)
(-0.00139298 0.000156984 0)
(-0.00137585 7.70198e-05 0)
(-0.00135086 -5.6451e-06 0)
(-0.00131871 -9.08906e-05 0)
(-0.00127909 -0.000177779 0)
(-0.0012321 -0.00026494 0)
(-0.0011783 -0.000350866 0)
(-0.0011184 -0.000434138 0)
(-0.0010533 -0.000513509 0)
(-0.000984134 -0.000587921 0)
(-0.000912219 -0.000656565 0)
(-0.000839024 -0.000719023 0)
(-0.000766017 -0.000775355 0)
(-0.00069451 -0.000826042 0)
(-0.000625541 -0.000871867 0)
(-0.00055982 -0.000913751 0)
(-6.18805e-06 0.000444177 0)
(-4.00994e-05 0.000854311 0)
(-0.000105319 0.00103433 0)
(-0.000185812 0.00110686 0)
(-0.000272923 0.00112932 0)
(-0.000362302 0.00112798 0)
(-0.000451122 0.00111456 0)
(-0.000537605 0.00109414 0)
(-0.000620613 0.00106883 0)
(-0.000699355 0.00103946 0)
(-0.000773232 0.00100627 0)
(-0.000841775 0.000969283 0)
(-0.000904609 0.00092845 0)
(-0.000961435 0.000883696 0)
(-0.00101203 0.000834962 0)
(-0.00105621 0.000782219 0)
(-0.00109389 0.000725476 0)
(-0.00112501 0.000664779 0)
(-0.00114955 0.000600215 0)
(-0.00116755 0.000531911 0)
(-0.00117904 0.000460034 0)
(-0.00118409 0.000384781 0)
(-0.00118273 0.000306373 0)
(-0.001175 0.000225024 0)
(-0.00116095 0.000140878 0)
(-0.00114048 5.39554e-05 0)
(-0.00111241 -3.57787e-05 0)
(-0.00107826 -0.000128281 0)
(-0.00103704 -0.000222281 0)
(-0.000989079 -0.0003162 0)
(-0.0009349 -0.000408302 0)
(-0.000875217 -0.000496926 0)
(-0.000811017 -0.00058058 0)
(-0.00074353 -0.000657988 0)
(-0.000674241 -0.000728141 0)
(-0.000604831 -0.00079052 0)
(-0.000537 -0.000845262 0)
(-0.000472278 -0.000893077 0)
(-0.000411877 -0.000935092 0)
(-0.000356659 -0.000972607 0)
(-2.92613e-06 0.000460562 0)
(-2.67006e-05 0.000899832 0)
(-7.77594e-05 0.00109958 0)
(-0.000143986 0.00118324 0)
(-0.000217601 0.00121071 0)
(-0.00029412 0.00121049 0)
(-0.000370545 0.00119579 0)
(-0.00044497 0.0011726 0)
(-0.000516183 0.00114353 0)
(-0.000583361 0.00110969 0)
(-0.000645915 0.00107151 0)
(-0.000703404 0.00102913 0)
(-0.000755496 0.00098259 0)
(-0.000801943 0.000931892 0)
(-0.000842568 0.000877047 0)
(-0.000877259 0.000818086 0)
(-0.000905962 0.000755072 0)
(-0.00092867 0.000688099 0)
(-0.000945418 0.000617289 0)
(-0.000956264 0.000542795 0)
(-0.00096128 0.000464792 0)
(-0.000960531 0.000383472 0)
(-0.000954054 0.000299031 0)
(-0.000941879 0.000211632 0)
(-0.000924042 0.000121306 0)
(-0.000900261 2.79281e-05 0)
(-0.000869281 -6.84191e-05 0)
(-0.00083288 -0.000167478 0)
(-0.000790032 -0.000267938 0)
(-0.000741082 -0.000368034 0)
(-0.000686498 -0.00046573 0)
(-0.000627037 -0.000559056 0)
(-0.000563773 -0.00064624 0)
(-0.000498027 -0.000725769 0)
(-0.000431432 -0.000796385 0)
(-0.000365888 -0.000857424 0)
(-0.000303299 -0.000909098 0)
(-0.000245393 -0.000952354 0)
(-0.000193541 -0.000988697 0)
(-0.000148821 -0.00101986 0)
(3.26933e-08 0.000469567 0)
(-1.38347e-05 0.000932318 0)
(-5.03545e-05 0.00115043 0)
(-0.000101607 0.00124546 0)
(-0.000160954 0.00127858 0)
(-0.000223907 0.00128008 0)
(-0.000287352 0.00126458 0)
(-0.000349265 0.00123897 0)
(-0.000408351 0.00120645 0)
(-0.000463752 0.00116843 0)
(-0.000514875 0.00112557 0)
(-0.000561301 0.00107814 0)
(-0.00060273 0.00102628 0)
(-0.000638955 0.000970066 0)
(-0.000669839 0.000909587 0)
(-0.000695308 0.000844928 0)
(-0.00071534 0.000776207 0)
(-0.000729962 0.000703557 0)
(-0.00073923 0.00062713 0)
(-0.000743218 0.00054709 0)
(-0.000741999 0.000463611 0)
(-0.000735625 0.000376864 0)
(-0.000724106 0.000287002 0)
(-0.000707452 0.000194115 0)
(-0.000685619 9.81392e-05 0)
(-0.000657675 -1.13367e-06 0)
(-0.000624228 -0.000103595 0)
(-0.000585356 -0.000208597 0)
(-0.000540715 -0.00031486 0)
(-0.000490597 -0.000420508 0)
(-0.00043546 -0.000523165 0)
(-0.000376135 -0.000620505 0)
(-0.000313799 -0.000710443 0)
(-0.000249834 -0.000791203 0)
(-0.000186055 -0.000861217 0)
(-0.000124569 -0.000919657 0)
(-6.73765e-05 -0.000966841 0)
(-1.63523e-05 -0.00100395 0)
(2.7012e-05 -0.00103285 0)
(6.12195e-05 -0.00105567 0)
(2.59191e-06 0.000471717 0)
(-1.95777e-06 0.000951884 0)
(-2.40341e-05 0.00118656 0)
(-6.00105e-05 0.00129296 0)
(-0.000104655 0.00133234 0)
(-0.000153641 0.00133623 0)
(-0.000203798 0.00132051 0)
(-0.000253002 0.00129298 0)
(-0.000299873 0.00125742 0)
(-0.000343502 0.00121562 0)
(-0.000383279 0.00116847 0)
(-0.000418795 0.00111641 0)
(-0.000449774 0.00105968 0)
(-0.000476032 0.000998441 0)
(-0.000497461 0.000932843 0)
(-0.000514007 0.00086303 0)
(-0.000525667 0.000789167 0)
(-0.00053248 0.000711425 0)
(-0.00053451 0.000629974 0)
(-0.000531829 0.000544983 0)
(-0.0005245 0.000456611 0)
(-0.000512553 0.000364995 0)
(-0.000495974 0.000270226 0)
(-0.000474757 0.000172283 0)
(-0.000448723 7.10055e-05 0)
(-0.000416305 -3.36206e-05 0)
(-0.000379836 -0.0001415 0)
(-0.000338071 -0.000251836 0)
(-0.000291269 -0.000363245 0)
(-0.00023966 -0.000473789 0)
(-0.000183783 -0.000580707 0)
(-0.000124532 -0.000681327 0)
(-6.31215e-05 -0.000773265 0)
(-9.0358e-07 -0.000854526 0)
(5.99253e-05 -0.000922864 0)
(0.000117013 -0.000977243 0)
(0.000168525 -0.00101838 0)
(0.000212425 -0.00104765 0)
(0.000247018 -0.00106725 0)
(0.000271052 -0.00108006 0)
(4.78627e-06 0.0004679 0)
(8.69198e-06 0.000958955 0)
(4.52198e-07 0.00120792 0)
(-2.03423e-05 0.00132555 0)
(-5.01269e-05 0.00137172 0)
(-8.49752e-05 0.00137872 0)
(-0.000121739 0.00136344 0)
(-0.000158222 0.00133456 0)
(-0.000192955 0.00129647 0)
(-0.000224963 0.00125137 0)
(-0.000253605 0.0012004 0)
(-0.000278466 0.00114417 0)
(-0.000299279 0.00108305 0)
(-0.000315874 0.0010173 0)
(-0.000328157 0.000947107 0)
(-0.000336077 0.000872676 0)
(-0.000339631 0.000794219 0)
(-0.000338863 0.000711936 0)
(-0.00033383 0.000626008 0)
(-0.000324591 0.000536601 0)
(-0.000311187 0.000443853 0)
(-0.000293616 0.000347863 0)
(-0.000271856 0.000248656 0)
(-0.000245909 0.00014608 0)
(-0.000215325 3.97606e-05 0)
(-0.000178472 -6.98806e-05 0)
(-0.000138174 -0.000182544 0)
(-9.31036e-05 -0.000297595 0)
(-4.37094e-05 -0.000413589 0)
(9.85704e-06 -0.00052879 0)
(6.65811e-05 -0.000639318 0)
(0.000125632 -0.000742211 0)
(0.000185911 -0.000834944 0)
(0.000245746 -0.000914906 0)
(0.000303136 -0.000980012 0)
(0.000355989 -0.00102936 0)
(0.000402129 -0.00106336 0)
(0.000439339 -0.00108355 0)
(0.000465731 -0.00109249 0)
(0.000479916 -0.00109358 0)
(6.6624e-06 0.000458631 0)
(1.80875e-05 0.000954958 0)
(2.2637e-05 0.0012151 0)
(1.64945e-05 0.00134314 0)
(1.42155e-06 0.00139664 0)
(-1.93147e-05 0.0014075 0)
(-4.27156e-05 0.00139339 0)
(-6.65791e-05 0.00136382 0)
(-8.93494e-05 0.00132377 0)
(-0.000109976 0.00127589 0)
(-0.000127765 0.00122161 0)
(-0.000142279 0.00116172 0)
(-0.000153245 0.00109672 0)
(-0.000160492 0.00102695 0)
(-0.000163927 0.00095269 0)
(-0.000163488 0.000874163 0)
(-0.000159164 0.000791633 0)
(-0.000150992 0.000705323 0)
(-0.000139016 0.000615418 0)
(-0.000123271 0.000522071 0)
(-0.000103762 0.000425392 0)
(-8.04355e-05 0.000325424 0)
(-5.32326e-05 0.000222097 0)
(-2.21354e-05 0.000115067 0)
(1.41942e-05 3.41489e-06 0)
(5.49254e-05 -0.000111075 0)
(9.9143e-05 -0.000228071 0)
(0.000147485 -0.000347187 0)
(0.000199397 -0.000466845 0)
(0.00025433 -0.000584572 0)
(0.000311622 -0.000697209 0)
(0.000370566 -0.000801534 0)
(0.000429967 -0.000894327 0)
(0.000488088 -0.000972534 0)
(0.000542857 -0.0010338 0)
(0.000592009 -0.00107701 0)
(0.000633145 -0.00110254 0)
(0.000663911 -0.00111211 0)
(0.000682278 -0.00110872 0)
(0.000686724 -0.00109631 0)
(8.18966e-06 0.00044466 0)
(2.62187e-05 0.000940693 0)
(4.23995e-05 0.00120922 0)
(4.99227e-05 0.00134652 0)
(4.90007e-05 0.00140721 0)
(4.21589e-05 0.00142256 0)
(3.19729e-05 0.00141047 0)
(2.05689e-05 0.00138097 0)
(9.55174e-06 0.00133965 0)
(4.00952e-08 0.00128956 0)
(-7.20661e-06 0.00123246 0)
(-1.17004e-05 0.00116941 0)
(-1.31378e-05 0.00110103 0)
(-1.1328e-05 0.00102775 0)
(-6.16215e-06 0.000949883 0)
(2.43231e-06 0.00086763 0)
(1.44597e-05 0.000781399 0)
(2.99058e-05 0.000691428 0)
(4.87537e-05 0.000597883 0)
(7.0993e-05 0.000500896 0)
(9.66484e-05 0.000400535 0)
(0.000125803 0.000296774 0)
(0.00015852 0.000189426 0)
(0.000194862 7.81079e-05 0)
(0.000236625 -3.72895e-05 0)
(0.000280764 -0.000155517 0)
(0.000328622 -0.000276168 0)
(0.000379989 -0.000398647 0)
(0.000434316 -0.000521288 0)
(0.00049108 -0.000641469 0)
(0.000549662 -0.000755885 0)
(0.000609226 -0.000860931 0)
(0.000668463 -0.000952911 0)
(0.000725553 -0.00102837 0)
(0.000778278 -0.00108464 0)
(0.000824151 -0.00112042 0)
(0.000860569 -0.00113603 0)
(0.00088504 -0.00113342 0)
(0.000895428 -0.00111602 0)
(0.000890141 -0.00108834 0)
(9.36681e-06 0.00042678 0)
(3.3053e-05 0.000917292 0)
(5.96663e-05 0.00119127 0)
(7.97782e-05 0.00133649 0)
(9.21741e-05 0.0014041 0)
(9.86384e-05 0.00142425 0)
(0.000101295 0.00141475 0)
(0.000102087 0.00138601 0)
(0.00010259 0.00134407 0)
(0.000103956 0.00129242 0)
(0.000106985 0.00123311 0)
(0.000112224 0.00116741 0)
(0.000120031 0.00109609 0)
(0.000130631 0.0010197 0)
(0.000144155 0.000938635 0)
(0.000160659 0.000853228 0)
(0.000180156 0.000763812 0)
(0.000202664 0.000670643 0)
(0.000228189 0.000573902 0)
(0.00025674 0.000473706 0)
(0.000288357 0.00037009 0)
(0.000323106 0.000262969 0)
(0.00036101 0.000152044 0)
(0.000402348 3.68006e-05 0)
(0.000448585 -8.23469e-05 0)
(0.000496827 -0.000203927 0)
(0.000548381 -0.000327766 0)
(0.000602915 -0.00045312 0)
(0.000659969 -0.000578209 0)
(0.00071907 -0.000700286 0)
(0.000779563 -0.000815844 0)
(0.000840451 -0.000920879 0)
(0.000900256 -0.0010112 0)
(0.00095698 -0.0010829 0)
(0.00100819 -0.00113298 0)
(0.00105115 -0.00115991 0)
(0.00108307 -0.00116404 0)
(0.00110133 -0.00114757 0)
(0.00110371 -0.0011144 0)
(0.00108861 -0.00106969 0)
(1.02183e-05 0.000405746 0)
(3.86065e-05 0.000885945 0)
(7.43945e-05 0.00116243 0)
(0.000105934 0.00131406 0)
(0.000130696 0.0013881 0)
(0.000149731 0.00141319 0)
(0.000164688 0.00140676 0)
(0.00017726 0.0013794 0)
(0.000188931 0.00133749 0)
(0.00020085 0.00128487 0)
(0.000213852 0.00122391 0)
(0.000228526 0.00115607 0)
(0.000245272 0.00108231 0)
(0.000264347 0.00100329 0)
(0.000285905 0.000919496 0)
(0.000310018 0.000831314 0)
(0.000336719 0.000739093 0)
(0.000366039 0.000643099 0)
(0.000398 0.00054352 0)
(0.000432631 0.000440456 0)
(0.000469993 0.000333906 0)
(0.000510143 0.000223715 0)
(0.00055312 0.00010948 0)
(0.000600208 -9.33991e-06 0)
(0.000649867 -0.000131578 0)
(0.000702076 -0.000256116 0)
(0.000757268 -0.000382766 0)
(0.000815125 -0.000510649 0)
(0.000875258 -0.000637854 0)
(0.000937188 -0.000761461 0)
(0.00100017 -0.000877674 0)
(0.00106303 -0.000982048 0)
(0.00112408 -0.00106987 0)
(0.00118105 -0.00113673 0)
(0.00123122 -0.00117927 0)
(0.00127159 -0.00119579 0)
(0.00129916 -0.0011867 0)
(0.00131117 -0.00115455 0)
(0.00130541 -0.00110379 0)
(0.00128033 -0.00104027 0)
(1.07755e-05 0.000382274 0)
(4.29284e-05 0.000847852 0)
(8.65891e-05 0.00112393 0)
(0.000128313 0.00128033 0)
(0.000164385 0.0013601 0)
(0.000195135 0.00139007 0)
(0.000221717 0.00138704 0)
(0.000245532 0.00136158 0)
(0.000267924 0.00132028 0)
(0.000290004 0.00126728 0)
(0.000312617 0.00120521 0)
(0.000336381 0.00113575 0)
(0.000361727 0.00106003 0)
(0.00038894 0.000978834 0)
(0.000418199 0.000892728 0)
(0.000449603 0.000802172 0)
(0.000483206 0.000707534 0)
(0.00051905 0.000609092 0)
(0.000557169 0.000507032 0)
(0.000597609 0.000401443 0)
(0.00064044 0.00029228 0)
(0.000685715 0.000179292 0)
(0.000733618 6.1952e-05 0)
(0.000785653 -5.99291e-05 0)
(0.000839182 -0.000184752 0)
(0.00089536 -0.000311969 0)
(0.00095425 -0.000441224 0)
(0.00101563 -0.000571459 0)
(0.00107918 -0.000700607 0)
(0.00114439 -0.000825512 0)
(0.0012104 -0.000941999 0)
(0.00127584 -0.00104511 0)
(0.00133872 -0.00112954 0)
(0.00139645 -0.00119038 0)
(0.00144596 -0.00122389 0)
(0.00148394 -0.00122825 0)
(0.00150716 -0.00120403 0)
(0.00151277 -0.00115424 0)
(0.00149857 -0.00108399 0)
(0.00146319 -0.000999892 0)
(1.10707e-05 0.000357031 0)
(4.60865e-05 0.000804211 0)
(9.62985e-05 0.00107707 0)
(0.000146897 0.00123648 0)
(0.000193128 0.00132111 0)
(0.000234626 0.0013557 0)
(0.000272045 0.00135623 0)
(0.000306463 0.00133305 0)
(0.000339045 0.00129287 0)
(0.000370828 0.00124003 0)
(0.000402641 0.00117737 0)
(0.00043511 0.0011068 0)
(0.000468691 0.00102958 0)
(0.000503692 0.000946642 0)
(0.000540314 0.000858647 0)
(0.00057868 0.000766114 0)
(0.000618866 0.00066944 0)
(0.000660924 0.000568919 0)
(0.000704905 0.000464735 0)
(0.000750873 0.000356955 0)
(0.000798908 0.000245481 0)
(0.000849091 0.000129946 0)
(0.000902199 9.70177e-06 0)
(0.000958181 -0.000114722 0)
(0.00101578 -0.000241885 0)
(0.00107588 -0.000371576 0)
(0.00113853 -0.000503312 0)
(0.00120362 -0.000635841 0)
(0.00127089 -0.000766874 0)
(0.0013398 -0.000892936 0)
(0.00140932 -0.00100937 0)
(0.00147785 -0.00111062 0)
(0.00154305 -0.00119075 0)
(0.00160192 -0.00124426 0)
(0.00165099 -0.00126707 0)
(0.00168658 -0.00125732 0)
(0.00170524 -0.00121588 0)
(0.00170403 -0.00114633 0)
(0.00168088 -0.00105461 0)
(0.00163466 -0.000948206 0)
(1.11374e-05 0.000330633 0)
(4.81633e-05 0.000756202 0)
(0.00010361 0.00102316 0)
(0.000161729 0.00118377 0)
(0.000216886 0.00127222 0)
(0.000268067 0.001311 0)
(0.000315432 0.00131509 0)
(0.000359715 0.00129446 0)
(0.000401875 0.00125579 0)
(0.000442838 0.00120356 0)
(0.00048339 0.0011408 0)
(0.00052415 0.00106957 0)
(0.000565578 0.000991314 0)
(0.000608001 0.000907065 0)
(0.000651638 0.000817588 0)
(0.000696631 0.000723464 0)
(0.000743072 0.000625126 0)
(0.000791028 0.000522883 0)
(0.000840565 0.000416913 0)
(0.000891775 0.00030725 0)
(0.000944761 0.0001937 0)
(0.000999739 7.57542e-05 0)
(0.00105809 -4.7146e-05 0)
(0.00111757 -0.000173534 0)
(0.0011791 -0.000302872 0)
(0.00124304 -0.000434962 0)
(0.00130951 -0.000569172 0)
(0.0013785 -0.000704044 0)
(0.00144978 -0.000837004 0)
(0.00152273 -0.000964155 0)
(0.00159616 -0.00108026 0)
(0.00166815 -0.00117905 0)
(0.00173598 -0.00125385 0)
(0.00179617 -0.00129857 0)
(0.00184476 -0.00130882 0)
(0.00187769 -0.00128279 0)
(0.00189126 -0.00122179 0)
(0.00188252 -0.00113023 0)
(0.00184958 -0.00101499 0)
(0.00179167 -0.000884614 0)
(1.10089e-05 0.000303635 0)
(4.92534e-05 0.000704963 0)
(0.000108645 0.000963546 0)
(0.000172905 0.00112352 0)
(0.000235694 0.00121462 0)
(0.000295408 0.00125702 0)
(0.00035173 0.00126448 0)
(0.000405048 0.00124651 0)
(0.00045609 0.00120965 0)
(0.000505644 0.00115841 0)
(0.000554426 0.00109596 0)
(0.000603023 0.0010245 0)
(0.00065189 0.000945615 0)
(0.000701356 0.000860462 0)
(0.000751652 0.000769894 0)
(0.000802932 0.000674553 0)
(0.0008553 0.000574912 0)
(0.000908838 0.000471291 0)
(0.000963636 0.000363857 0)
(0.0010198 0.000252585 0)
(0.00107749 0.000137157 0)
(0.00113736 1.69182e-05 0)
(0.00119969 -0.000107992 0)
(0.00126313 -0.000236202 0)
(0.00132858 -0.000367664 0)
(0.0013964 -0.000502174 0)
(0.0014668 -0.000638948 0)
(0.00153987 -0.000776298 0)
(0.00161539 -0.000911292 0)
(0.00169265 -0.00103951 0)
(0.00177024 -0.001155 0)
(0.0018459 -0.00125065 0)
(0.00191643 -0.00131899 0)
(0.00197783 -0.00135327 0)
(0.00202558 -0.00134883 0)
(0.0020552 -0.00130408 0)
(0.00206276 -0.00122099 0)
(0.00204533 -0.00110497 0)
(0.00200132 -0.000964133 0)
(0.00193045 -0.000808179 0)
(1.0718e-05 0.000276533 0)
(4.94594e-05 0.000651579 0)
(0.000111555 0.000899549 0)
(0.000180573 0.00105707 0)
(0.000249654 0.00114958 0)
(0.000316676 0.00119484 0)
(0.000380882 0.00120536 0)
(0.000442315 0.00119002 0)
(0.000501459 0.00115511 0)
(0.000558944 0.00110514 0)
(0.000615389 0.00104333 0)
(0.000671332 0.000972015 0)
(0.0007272 0.000892886 0)
(0.000783316 0.000807204 0)
(0.000839908 0.000715912 0)
(0.000897136 0.000619712 0)
(0.000955114 0.000519113 0)
(0.00101394 0.000414439 0)
(0.00107373 0.000305828 0)
(0.00113464 0.00019316 0)
(0.00119697 7.59581e-05 0)
(0.00126191 -4.64834e-05 0)
(0.00132762 -0.000172782 0)
(0.00139487 -0.000302698 0)
(0.00146416 -0.000436293 0)
(0.00153587 -0.000573304 0)
(0.00161031 -0.000712793 0)
(0.00168761 -0.000852798 0)
(0.00176752 -0.000989952 0)
(0.00184921 -0.00111919 0)
(0.00193101 -0.00123372 0)
(0.00201027 -0.00132546 0)
(0.00208326 -0.00138599 0)
(0.00214536 -0.00140794 0)
(0.00219147 -0.00138641 0)
(0.00221665 -0.0013202 0)
(0.00221675 -0.0012122 0)
(0.00218895 -0.00106912 0)
(0.00213204 -0.00090052 0)
(0.00204639 -0.000717471 0)
(1.02959e-05 0.000249756 0)
(4.88884e-05 0.00059706 0)
(0.000112511 0.000832462 0)
(0.000184922 0.000985785 0)
(0.000258927 0.00107839 0)
(0.000331976 0.00112566 0)
(0.000402914 0.00113876 0)
(0.000471458 0.00112586 0)
(0.000537842 0.00109294 0)
(0.000602524 0.0010444 0)
(0.000666008 0.000983489 0)
(0.00072876 0.000912606 0)
(0.000791164 0.00083355 0)
(0.000853519 0.000747671 0)
(0.000916043 0.000655989 0)
(0.000978892 0.000559261 0)
(0.00104219 0.000458021 0)
(0.00110604 0.000352589 0)
(0.00117061 0.000243037 0)
(0.00123611 0.000129114 0)
(0.00130329 1.01614e-05 0)
(0.00137208 -0.000113651 0)
(0.00144165 -0.000241288 0)
(0.00151279 -0.00037296 0)
(0.00158598 -0.000508787 0)
(0.00166169 -0.000648442 0)
(0.00174027 -0.000790824 0)
(0.00182187 -0.000933658 0)
(0.00190617 -0.00107305 0)
(0.00199217 -0.00120319 0)
(0.00207794 -0.00131628 0)
(0.00216036 -0.00140314 0)
(0.00223513 -0.00145431 0)
(0.00229696 -0.00146171 0)
(0.00234009 -0.00142034 0)
(0.00235911 -0.00132959 0)
(0.00234969 -0.00119356 0)
(0.00230917 -0.00102061 0)
(0.00223685 -0.000822022 0)
(0.00213387 -0.000610399 0)
(9.77116e-06 0.000223669 0)
(4.76473e-05 0.000542334 0)
(0.0001117 0.00076353 0)
(0.000186176 0.000911026 0)
(0.00026373 0.00100241 0)