/*--------------------------------*- C++ -*----------------------------------*\
  =========                 |
  \\      /  F ield         | OpenFOAM: The Open Source CFD Toolbox
   \\    /   O peration     | Website:  https://openfoam.org
    \\  /    A nd           | Version:  6
     \\/     M anipulation  |
\*---------------------------------------------------------------------------*/
FoamFile
{
    version     2.0;
    format      ascii;
    class       volScalarField;
    location    "50";
    object      source;
}
// * * * * * * * * * * * * * * * * * * * * * * * * * * * * * * * * * * * * * //

dimensions      [0 -3 0 0 0 1 0];

internalField   nonuniform List<scalar> 
8800
(
0.000418745
0.000418611
0.00041859
0.00041866
0.000418728
0.000418785
0.000418839
0.000418901
0.000418972
0.00041905
0.000419136
0.00041923
0.00041933
0.000419438
0.000419552
0.000419673
0.000419799
0.000419931
0.000420068
0.000420209
0.000420355
0.000420504
0.000420652
0.0004208
0.00042095
0.000421101
0.000421254
0.000421409
0.000421566
0.000421727
0.000421891
0.000422059
0.000422229
0.000422399
0.000422567
0.00042273
0.000422884
0.00042303
0.000423168
0.000423297
0.000392273
0.000391672
0.000391631
0.000391708
0.000391798
0.000391891
0.000391992
0.000392103
0.000392226
0.000392361
0.000392509
0.000392668
0.00039284
0.000393022
0.000393216
0.000393419
0.000393632
0.000393854
0.000394083
0.00039432
0.000394563
0.000394811
0.000395047
0.000395281
0.000395517
0.000395753
0.000395993
0.000396238
0.000396491
0.000396755
0.000397032
0.000397321
0.000397623
0.000397929
0.000398234
0.000398535
0.000398821
0.000399093
0.000399348
0.000399583
0.000366425
0.000365637
0.000365524
0.000365611
0.000365735
0.000365869
0.000366014
0.000366174
0.000366349
0.000366541
0.00036675
0.000366974
0.000367214
0.000367468
0.000367736
0.000368017
0.000368309
0.000368612
0.000368925
0.000369245
0.000369573
0.000369903
0.000370204
0.000370504
0.000370802
0.000371101
0.000371406
0.000371722
0.000372055
0.000372411
0.000372796
0.000373208
0.000373647
0.000374101
0.000374562
0.000375018
0.000375455
0.000375871
0.000376261
0.00037662
0.00034135
0.000340595
0.000340454
0.000340531
0.000340668
0.000340831
0.000341014
0.000341218
0.000341443
0.000341689
0.000341955
0.000342239
0.000342541
0.00034286
0.000343195
0.000343543
0.000343903
0.000344274
0.000344654
0.000345042
0.000345435
0.000345819
0.000346166
0.000346506
0.000346843
0.000347181
0.000347529
0.000347896
0.000348293
0.000348732
0.000349218
0.000349755
0.000350338
0.000350952
0.000351583
0.000352214
0.000352822
0.0003534
0.000353943
0.000354444
0.000317244
0.000316589
0.000316458
0.000316532
0.000316678
0.000316863
0.000317078
0.000317321
0.000317591
0.000317885
0.000318201
0.000318538
0.000318894
0.000319267
0.000319655
0.000320057
0.000320469
0.000320891
0.000321321
0.000321755
0.00032219
0.000322603
0.00032297
0.000323326
0.000323677
0.000324031
0.0003244
0.0003248
0.000325246
0.000325756
0.00032634
0.000327002
0.000327736
0.000328523
0.00032934
0.000330163
0.000330962
0.000331723
0.000332439
0.000333099
0.000294193
0.000293683
0.000293589
0.000293672
0.000293828
0.000294031
0.000294273
0.000294548
0.000294855
0.000295188
0.000295545
0.000295923
0.000296321
0.000296735
0.000297163
0.000297601
0.000298049
0.000298503
0.000298961
0.00029942
0.000299874
0.000300286
0.00030065
0.000300998
0.00030134
0.000301688
0.000302058
0.000302472
0.000302954
0.000303525
0.000304203
0.00030499
0.000305883
0.000306855
0.000307876
0.000308911
0.000309921
0.000310887
0.000311796
0.000312636
0.000272234
0.000271927
0.000271895
0.000271995
0.000272162
0.000272379
0.000272641
0.000272941
0.000273274
0.000273636
0.000274023
0.00027443
0.000274856
0.000275295
0.000275746
0.000276205
0.000276668
0.000277135
0.000277601
0.000278063
0.00027851
0.000278896
0.000279234
0.000279553
0.000279865
0.000280186
0.000280538
0.00028095
0.000281453
0.000282076
0.000282844
0.00028376
0.00028482
0.000285992
0.000287235
0.000288505
0.00028975
0.000290944
0.000292068
0.000293108
0.000251393
0.000251346
0.000251399
0.000251523
0.000251701
0.000251928
0.000252202
0.000252517
0.000252868
0.000253247
0.00025365
0.000254073
0.000254512
0.000254962
0.000255419
0.00025588
0.000256342
0.000256802
0.000257257
0.000257702
0.00025812
0.000258453
0.000258745
0.000259015
0.000259278
0.000259554
0.000259871
0.000260266
0.000260778
0.000261445
0.000262299
0.000263347
0.000264585
0.000265973
0.000267461
0.000268991
0.000270498
0.000271945
0.000273309
0.000274571
0.000231685
0.000231946
0.000232103
0.000232258
0.000232446
0.000232679
0.000232958
0.000233279
0.000233635
0.00023402
0.000234427
0.000234852
0.00023529
0.000235735
0.000236183
0.000236631
0.000237074
0.000237511
0.000237937
0.000238346
0.000238716
0.000238974
0.000239204
0.000239408
0.000239606
0.000239821
0.000240087
0.00024045
0.000240959
0.000241661
0.000242598
0.000243782
0.00024521
0.000246834
0.000248591
0.000250412
0.000252211
0.000253942
0.000255575
0.000257083
0.000213109
0.000213716
0.000213992
0.000214184
0.00021438
0.000214614
0.00021489
0.000215208
0.00021556
0.000215939
0.000216339
0.000216753
0.000217177
0.000217604
0.00021803
0.00021845
0.000218861
0.000219259
0.000219642
0.00022
0.000220305
0.000220469
0.000220623
0.000220749
0.000220867
0.000221007
0.000221208
0.000221526
0.000222021
0.00022275
0.000223769
0.000225094
0.000226726
0.000228607
0.000230662
0.000232812
0.000234937
0.000236983
0.000238911
0.000240692
0.000195653
0.000196631
0.000197037
0.000197269
0.000197473
0.000197702
0.000197971
0.000198277
0.000198616
0.00019898
0.000199361
0.000199754
0.000200152
0.00020055
0.000200942
0.000201323
0.00020169
0.00020204
0.000202367
0.00020266
0.000202856
0.000202946
0.000203014
0.00020305
0.000203078
0.000203131
0.000203256
0.000203517
0.000203986
0.000204735
0.000205835
0.000207306
0.000209162
0.000211329
0.000213711
0.00021621
0.000218698
0.000221099
0.00022336
0.000225446
0.000179294
0.000180652
0.000181196
0.000181471
0.000181682
0.000181904
0.000182158
0.000182447
0.000182766
0.000183106
0.00018346
0.000183823
0.000184187
0.000184547
0.000184896
0.000185231
0.000185546
0.000185838
0.000186103
0.00018632
0.000186396
0.000186403
0.000186379
0.000186319
0.000186247
0.000186205
0.000186243
0.000186437
0.000186873
0.000187637
0.000188823
0.000190454
0.000192538
0.000195005
0.000197745
0.000200634
0.000203527
0.000206323
0.000208956
0.000211382
0.000163999
0.000165736
0.00016642
0.00016674
0.000166958
0.00016717
0.000167407
0.000167673
0.000167965
0.000168276
0.000168598
0.000168924
0.000169248
0.000169564
0.000169866
0.000170148
0.000170406
0.000170636
0.000170833
0.000170973
0.000170919
0.000170837
0.000170716
0.000170554
0.000170379
0.000170234
0.000170179
0.000170299
0.000170699
0.000171483
0.000172746
0.000174541
0.00017687
0.000179661
0.000182789
0.000186106
0.000189445
0.00019268
0.000195728
0.000198534
0.000149733
0.000151833
0.000152657
0.000153023
0.000153248
0.000153449
0.000153666
0.000153907
0.000154169
0.000154446
0.000154732
0.000155018
0.000155299
0.000155568
0.000155819
0.000156046
0.000156245
0.000156411
0.000156537
0.000156572
0.000156409
0.000156235
0.000156016
0.00015575
0.000155469
0.000155211
0.000155064
0.000155112
0.000155474
0.000156276
0.000157626
0.00015959
0.000162177
0.000165313
0.000168859
0.000172641
0.000176469
0.00018019
0.000183698
0.000186926
0.000136454
0.00013889
0.000139849
0.000140263
0.000140495
0.000140685
0.000140881
0.000141096
0.000141327
0.00014157
0.000141818
0.000142063
0.0001423
0.000142521
0.000142721
0.000142893
0.000143033
0.000143135
0.000143192
0.000143081
0.000142842
0.000142578
0.000142253
0.000141884
0.000141498
0.000141138
0.0001409
0.000140882
0.000141213
0.000142035
0.000143476
0.000145618
0.000148478
0.000151981
0.000155974
0.00016026
0.000164619
0.00016887
0.000172886
0.000176582
0.000124117
0.000126853
0.000127941
0.000128402
0.000128644
0.000128824
0.000129001
0.000129189
0.00012939
0.000129599
0.00012981
0.000130015
0.000130209
0.000130384
0.000130535
0.000130654
0.000130737
0.000130778
0.000130766
0.000130501
0.000130185
0.00012983
0.000129407
0.00012894
0.000128455
0.000128004
0.000127684
0.000127607
0.000127915
0.000128767
0.00013031
0.000132643
0.000135794
0.000139688
0.00014416
0.000148986
0.000153918
0.000158745
0.000163316
0.000167513
0.000112678
0.000115672
0.000116877
0.000117385
0.000117638
0.000117812
0.000117971
0.000118136
0.000118309
0.000118486
0.000118662
0.00011883
0.000118984
0.000119116
0.000119219
0.000119288
0.000119317
0.000119298
0.000119139
0.000118798
0.000118405
0.000117964
0.000117453
0.000116895
0.000116322
0.000115791
0.000115402
0.000115279
0.000115578
0.000116475
0.000118138
0.000120684
0.000124151
0.000128467
0.000133451
0.000138854
0.000144398
0.000149843
0.000155015
0.000159663
0.000102094
0.000105294
0.000106604
0.000107157
0.000107425
0.000107595
0.00010774
0.000107885
0.000108034
0.000108183
0.000108329
0.000108463
0.00010858
0.000108671
0.000108732
0.000108754
0.000108731
0.000108653
0.000108338
0.000107933
0.000107468
0.000106945
0.000106355
0.000105716
0.000105068
0.000104472
0.000104032
0.000103882
0.000104194
0.000105161
0.000106972
0.000109764
0.000113585
0.00011836
0.000123895
0.000129912
0.000136107
0.000142209
0.000148027
0.000153144
9.23214e-05
9.56744e-05
9.7071e-05
9.76676e-05
9.79516e-05
9.81226e-05
9.8259e-05
9.83881e-05
9.85168e-05
9.86433e-05
9.87625e-05
9.88679e-05
9.89527e-05
9.90089e-05
9.90305e-05
9.90095e-05
9.89373e-05
9.87177e-05
9.83285e-05
9.78623e-05
9.73288e-05
9.67328e-05
9.60716e-05
9.5367e-05
9.46604e-05
9.40183e-05
9.35488e-05
9.33977e-05
9.37515e-05
9.4824e-05
9.68241e-05
9.99087e-05
0.000104133
0.000109418
0.000115552
0.000122226
0.000129106
0.000135901
0.000142316
0.00014799
8.33148e-05
8.6767e-05
8.82322e-05
8.88684e-05
8.91714e-05
8.93474e-05
8.94798e-05
8.9599e-05
8.97133e-05
8.98221e-05
8.99204e-05
9.00019e-05
9.00595e-05
9.0085e-05
9.00717e-05
9.00103e-05
8.9873e-05
8.95099e-05
8.90619e-05
8.85369e-05
8.79409e-05
8.72808e-05
8.65615e-05
8.58067e-05
8.50605e-05
8.43948e-05
8.39224e-05
8.38011e-05
8.42344e-05
8.54576e-05
8.77027e-05
9.11438e-05
9.58413e-05
0.000101705
0.000108496
0.000115876
0.00012348
0.000131001
0.000138011
0.000144256
7.50307e-05
7.85302e-05
8.00451e-05
8.07166e-05
8.10402e-05
8.12257e-05
8.13595e-05
8.14745e-05
8.15804e-05
8.16773e-05
8.17603e-05
8.18229e-05
8.18577e-05
8.18563e-05
8.18106e-05
8.17103e-05
8.14131e-05
8.09895e-05
8.04865e-05
7.99063e-05
7.92552e-05
7.8543e-05
7.77806e-05
7.69938e-05
7.62299e-05
7.55653e-05
7.51198e-05
7.50642e-05
7.5622e-05
7.70531e-05
7.9614e-05
8.34952e-05
8.87565e-05
9.52873e-05
0.000102814
0.000110959
0.00011933
0.000127608
0.000135223
0.000142015
6.74262e-05
7.09248e-05
7.24709e-05
7.31727e-05
7.35184e-05
7.37175e-05
7.38581e-05
7.39748e-05
7.40782e-05
7.41687e-05
7.42415e-05
7.42895e-05
7.43048e-05
7.42784e-05
7.4201e-05
7.3977e-05
7.35828e-05
7.31052e-05
7.25499e-05
7.19201e-05
7.12241e-05
7.04743e-05
6.9686e-05
6.88876e-05
6.81291e-05
6.7492e-05
6.7105e-05
6.7155e-05
6.78892e-05
6.95966e-05
7.25607e-05
7.69868e-05
8.29271e-05
9.02391e-05
9.86006e-05
0.000107586
0.000116772
0.000125772
0.000134012
0.000141342
6.046e-05
6.39143e-05
6.54742e-05
6.62012e-05
6.65699e-05
6.67864e-05
6.69389e-05
6.70629e-05
6.71692e-05
6.72582e-05
6.73246e-05
6.73609e-05
6.7358e-05
6.73061e-05
6.71481e-05
6.6789e-05
6.63354e-05
6.5805e-05
6.52014e-05
6.45306e-05
6.38028e-05
6.30322e-05
6.22372e-05
6.14484e-05
6.07184e-05
6.01354e-05
5.98395e-05
6.00378e-05
6.10067e-05
6.30701e-05
6.65419e-05
7.16404e-05
7.84018e-05
8.6636e-05
9.59554e-05
0.000105874
0.000115936
0.000125643
0.000134485
0.000142329
5.40921e-05
5.74649e-05
5.90227e-05
5.977e-05
6.01622e-05
6.03994e-05
6.05685e-05
6.07045e-05
6.0818e-05
6.09091e-05
6.09714e-05
6.09963e-05
6.09736e-05
6.08758e-05
6.0554e-05
6.01265e-05
5.96188e-05
5.90394e-05
5.83952e-05
5.76954e-05
5.69515e-05
5.61785e-05
5.53964e-05
5.46377e-05
5.39586e-05
5.34551e-05
5.32828e-05
5.36743e-05
5.49423e-05
5.74526e-05
6.15543e-05
6.74767e-05
7.52287e-05
8.45544e-05
9.49804e-05
0.000105946
0.000116974
0.000127386
0.000136769
0.000145083
4.82843e-05
5.15447e-05
5.30869e-05
5.38499e-05
5.4266e-05
5.45265e-05
5.47157e-05
5.48675e-05
5.4991e-05
5.50856e-05
5.51433e-05
5.51541e-05
5.51062e-05
5.48283e-05
5.44291e-05
5.39444e-05
5.33861e-05
5.27651e-05
5.20922e-05
5.13783e-05
5.06354e-05
4.98785e-05
4.91281e-05
4.84183e-05
4.78102e-05
4.741e-05
4.73931e-05
4.80246e-05
4.96622e-05
5.27225e-05
5.75949e-05
6.45168e-05
7.34567e-05
8.40711e-05
9.5777e-05
0.000107924
0.000119975
0.00013107
0.000140959
0.000149712
4.29996e-05
4.61239e-05
4.76394e-05
4.84143e-05
4.88541e-05
4.914e-05
4.93517e-05
4.95211e-05
4.96552e-05
4.97519e-05
4.98012e-05
4.9791e-05
4.95707e-05
4.92004e-05
4.87388e-05
4.81999e-05
4.75982e-05
4.69477e-05
4.6261e-05
4.55496e-05
4.48251e-05
4.41013e-05
4.3399e-05
4.27543e-05
4.22342e-05
4.19586e-05
4.21283e-05
4.30487e-05
4.51333e-05
4.88594e-05
5.46626e-05
6.27845e-05
7.31368e-05
8.52627e-05
9.84439e-05
0.000111918
0.000124993
0.000136776
0.00014715
0.000156325
3.82028e-05
4.11743e-05
4.26548e-05
4.34382e-05
4.39015e-05
4.42134e-05
4.44485e-05
4.46352e-05
4.47776e-05
4.48713e-05
4.49037e-05
4.47471e-05
4.44068e-05
4.39659e-05
4.34445e-05
4.28588e-05
4.2226e-05
4.15614e-05
4.08777e-05
4.01855e-05
3.9495e-05
3.88187e-05
3.81775e-05
3.76104e-05
3.71923e-05
3.70605e-05
3.74471e-05
3.87082e-05
4.13247e-05
4.58467e-05
5.27613e-05
6.23086e-05
7.43231e-05
8.82055e-05
0.000103077
0.00011806
0.000132167
0.0001446
0.000155435
0.000165031
3.38601e-05
3.66686e-05
3.81085e-05
3.88978e-05
3.93838e-05
3.97214e-05
3.99784e-05
4.01792e-05
4.03237e-05
4.04049e-05
4.03225e-05
4.00192e-05
3.95979e-05
3.90907e-05
3.85176e-05
3.78983e-05
3.72506e-05
3.65891e-05
3.59249e-05
3.52667e-05
3.4623e-05
3.4005e-05
3.34342e-05
3.29533e-05
3.26478e-05
3.26765e-05
3.33109e-05
3.49681e-05
3.82103e-05
4.3673e-05
5.19008e-05
6.31228e-05
7.70721e-05
9.29731e-05
0.000109759
0.000126432
0.000141511
0.00015458
0.000165886
0.000175928
2.9939e-05
3.25804e-05
3.39767e-05
3.47699e-05
3.5277e-05
3.56379e-05
3.59129e-05
3.61211e-05
3.62571e-05
3.62639e-05
3.60056e-05
3.56093e-05
3.51157e-05
3.4552e-05
3.39421e-05
3.33066e-05
3.26619e-05
3.20202e-05
3.13901e-05
3.07779e-05
3.01899e-05
2.9637e-05
2.91415e-05
2.87518e-05
2.85664e-05
2.87709e-05
2.96842e-05
3.17972e-05
3.57687e-05
4.2333e-05
5.20962e-05
6.52646e-05
8.14394e-05
9.96311e-05
0.000118548
0.000136878
0.000152985
0.000166729
0.000178557
0.000189094
2.64085e-05
2.88839e-05
3.02354e-05
3.10306e-05
3.15562e-05
3.19363e-05
3.22221e-05
3.24268e-05
3.25383e-05
3.23381e-05
3.19737e-05
3.14983e-05
3.09438e-05
3.03404e-05
2.97131e-05
2.90808e-05
2.84568e-05
2.78498e-05
2.72652e-05
2.67069e-05
2.61798e-05
2.56943e-05
2.52751e-05
2.49779e-05
2.49173e-05
2.53115e-05
2.65361e-05
2.91696e-05
3.39837e-05
4.18258e-05
5.33656e-05
6.87698e-05
8.74726e-05
0.000108233
0.00012953
0.000149444
0.000166585
0.000181055
0.000193486
0.000204581
2.32386e-05
2.55533e-05
2.68603e-05
2.76554e-05
2.81956e-05
2.8588e-05
2.88741e-05
2.90603e-05
2.89794e-05
2.86655e-05
2.82165e-05
2.76751e-05
2.70786e-05
2.64576e-05
2.58348e-05
2.52251e-05
2.46376e-05
2.40769e-05
2.35454e-05
2.30448e-05
2.25791e-05
2.21593e-05
2.18138e-05
2.1607e-05
2.16738e-05
2.22705e-05
2.38403e-05
2.70636e-05
3.28428e-05
4.21516e-05
5.57238e-05
7.36645e-05
9.51997e-05
0.000118793
0.000142647
0.000164028
0.000182237
0.000197532
0.000210678
0.00022239
2.04015e-05
2.25636e-05
2.38256e-05
2.46177e-05
2.51677e-05
2.55631e-05
2.58352e-05
2.59044e-05
2.56555e-05
2.52475e-05
2.47271e-05
2.41413e-05
2.35278e-05
2.29142e-05
2.23178e-05
2.17482e-05
2.12096e-05
2.0703e-05
2.0228e-05
1.97847e-05
1.93769e-05
1.90174e-05
1.87392e-05
1.86183e-05
1.88127e-05
1.96244e-05
2.15742e-05
2.54606e-05
3.23339e-05
4.33068e-05
5.91739e-05
7.99522e-05
0.000104616
0.00013128
0.000157435
0.000180437
0.000199835
0.000216107
0.000230093
0.000242451
1.787e-05
1.98879e-05
2.11051e-05
2.18918e-05
2.24443e-05
2.283e-05
2.30703e-05
2.29253e-05
2.25677e-05
2.20794e-05
2.15109e-05
2.09088e-05
2.03068e-05
1.97256e-05
1.91756e-05
1.86605e-05
1.81795e-05
1.77305e-05
1.73109e-05
1.69203e-05
1.65633e-05
1.62552e-05
1.60355e-05
1.59934e-05
1.63145e-05
1.73526e-05
1.97181e-05
2.43425e-05
3.2441e-05
4.52759e-05
6.36952e-05
8.75971e-05
0.000115667
0.000145712
0.000173896
0.000198532
0.000219253
0.000236684
0.000251624
0.000264645
1.56173e-05
1.74998e-05
1.86726e-05
1.94511e-05
1.99956e-05
2.03568e-05
2.04162e-05
2.01506e-05
1.9709e-05
1.91672e-05
1.85823e-05
1.79963e-05
1.74345e-05
1.69087e-05
1.64217e-05
1.5971e-05
1.55518e-05
1.51593e-05
1.47901e-05
1.44441e-05
1.41274e-05
1.38594e-05
1.3687e-05
1.37151e-05
1.41608e-05
1.54366e-05
1.82527e-05
2.36884e-05
3.31387e-05
4.80222e-05
6.92293e-05
9.65031e-05
0.000128153
0.000161139
0.000191622
0.000218052
0.000240302
0.000259117
0.000275035
0.000288167
1.36175e-05
1.53738e-05
1.65025e-05
1.72684e-05
1.77918e-05
1.80856e-05
1.79469e-05
1.75855e-05
1.70854e-05
1.65257e-05
1.59611e-05
1.54241e-05
1.49288e-05
1.44775e-05
1.4065e-05
1.36836e-05
1.33254e-05
1.29841e-05
1.26564e-05
1.23437e-05
1.20547e-05
1.18136e-05
1.16763e-05
1.17656e-05
1.23333e-05
1.3857e-05
1.71564e-05
2.34708e-05
3.43855e-05
5.14776e-05
7.56644e-05
0.000106513
0.000141973
0.000177584
0.000210343
0.000238702
0.000262726
0.000282916
0.000299295
0.000312999
1.18463e-05
1.3485e-05
1.45705e-05
1.53156e-05
1.58042e-05
1.59162e-05
1.56662e-05
1.52334e-05
1.4711e-05
1.41742e-05
1.36673e-05
1.32094e-05
1.28024e-05
1.24385e-05
1.21062e-05
1.17934e-05
1.14904e-05
1.11909e-05
1.08928e-05
1.05999e-05
1.03246e-05
1.00968e-05
9.98246e-06
1.0124e-05
1.08114e-05
1.25924e-05
1.64034e-05
2.36518e-05
3.61182e-05
5.55321e-05
8.2813e-05
0.000117282
0.000155976
0.000194432
0.000229576
0.000260073
0.00028603
0.000306722
0.000324367
0.000338787
1.02812e-05
1.181e-05
1.28532e-05
1.35652e-05
1.39811e-05
1.39063e-05
1.35722e-05
1.31053e-05
1.26042e-05
1.21321e-05
1.1717e-05
1.13625e-05
1.10582e-05
1.07877e-05
1.05343e-05
1.02835e-05
1.00254e-05
9.75486e-06
9.47226e-06
9.1846e-06
8.90882e-06
8.68116e-06
8.5789e-06
8.76535e-06
9.57095e-06
1.16172e-05
1.59611e-05
2.41807e-05
3.8248e-05
6.00306e-05
9.04254e-05
0.000128426
0.000170042
0.000211195
0.000248741
0.000281702
0.000308376
0.000330456
0.000349666
0.000364979
8.9009e-06
1.03272e-05
1.13259e-05
1.19929e-05
1.22386e-05
1.20579e-05
1.16727e-05
1.12177e-05
1.07837e-05
1.04144e-05
1.0118e-05
9.88252e-06
9.68663e-06
9.5075e-06
9.32508e-06
9.12449e-06
8.89694e-06
8.63999e-06
8.35748e-06
8.0605e-06
7.77103e-06
7.53234e-06
7.43348e-06
7.65977e-06
8.5835e-06
1.09011e-05
1.57901e-05
2.49935e-05
4.06598e-05
6.47681e-05
9.81533e-05
0.000139026
0.000183471
0.000227127
0.000266922
0.00030206
0.00032929
0.000353259
0.000374202
0.000390824
7.68621e-06
9.01775e-06
9.96503e-06
1.05746e-05
1.06287e-05
1.03728e-05
9.98158e-06
9.58865e-06
9.26423e-06
9.02741e-06
8.86649e-06
8.75538e-06
8.66444e-06
8.5667e-06
8.44121e-06
8.27439e-06
8.06031e-06
7.80026e-06
7.50243e-06
7.18264e-06
6.86832e-06
6.61011e-06
6.50918e-06
6.7733e-06
7.81677e-06
1.04097e-05
1.58446e-05
2.60156e-05
4.32193e-05
6.94875e-05
0.000105429
0.000148822
0.00019568
0.000241466
0.000283295
0.00031947
0.000347895
0.000373711
0.000396504
0.000415229
6.61934e-06
7.86238e-06
8.75049e-06
9.20887e-06
9.15426e-06
8.86185e-06
8.51672e-06
8.23334e-06
8.05205e-06
7.96597e-06
7.94537e-06
7.95339e-06
7.95506e-06
7.92202e-06
7.83453e-06
7.68206e-06
7.46281e-06
7.18285e-06
6.85534e-06
6.50127e-06
6.15375e-06
5.8709e-06
5.76609e-06
6.0694e-06
7.23608e-06
1.01058e-05
1.60755e-05
2.71686e-05
4.57985e-05
7.4006e-05
0.000111896
0.000157342
0.000206027
0.000253312
0.00029643
0.000333033
0.00036265
0.000389858
0.000414407
0.000436335
0.000423415
0.000423522
0.000423616
0.000423701
0.000423776
0.000423841
0.000423894
0.000423935
0.000423964
0.000423979
0.000423979
0.000423964
0.000423935
0.000423894
0.000423841
0.000423776
0.000423701
0.000423616
0.000423522
0.000423415
0.000399799
0.000399994
0.00040017
0.00040032
0.000400455
0.000400575
0.000400675
0.000400754
0.000400809
0.000400842
0.000400842
0.000400809
0.000400754
0.000400675
0.000400575
0.000400455
0.00040032
0.00040017
0.000399994
0.000399799
0.000376947
0.000377243
0.000377513
0.000377756
0.000377965
0.000378152
0.000378313
0.000378439
0.000378529
0.000378581
0.000378581
0.000378529
0.000378439
0.000378313
0.000378152
0.000377965
0.000377756
0.000377513
0.000377243
0.000376947
0.000354901
0.000355314
0.000355692
0.000356048
0.000356355
0.000356627
0.000356864
0.000357053
0.000357188
0.000357266
0.000357266
0.000357188
0.000357053
0.000356864
0.000356627
0.000356355
0.000356048
0.000355692
0.000355314
0.000354901
0.000333703
0.00033425
0.000334754
0.00033523
0.00033567
0.000336045
0.000336373
0.000336638
0.000336829
0.000336939
0.000336939
0.000336829
0.000336638
0.000336373
0.000336045
0.00033567
0.00033523
0.000334754
0.00033425
0.000333703
0.000313404
0.000314102
0.000314746
0.000315357
0.000315949
0.000316443
0.000316878
0.000317231
0.000317487
0.000317635
0.000317635
0.000317487
0.000317231
0.000316878
0.000316443
0.000315949
0.000315357
0.000314746
0.000314102
0.000313404
0.000294058
0.000294923
0.000295722
0.000296481
0.000297217
0.000297861
0.000298415
0.000298867
0.000299196
0.000299386
0.000299386
0.000299196
0.000298867
0.000298415
0.000297861
0.000297217
0.000296481
0.000295722
0.000294923
0.000294058
0.000275723
0.000276771
0.000277738
0.000278655
0.000279544
0.00028034
0.000281023
0.000281583
0.000281989
0.000282225
0.000282225
0.000281989
0.000281583
0.000281023
0.00028034
0.000279544
0.000278655
0.000277738
0.000276771
0.000275723
0.000258458
0.000259704
0.000260851
0.000261936
0.000262985
0.000263922
0.000264743
0.000265416
0.000265907
0.000266191
0.000266191
0.000265907
0.000265416
0.000264743
0.000263922
0.000262985
0.000261936
0.000260851
0.000259704
0.000258458
0.000242312
0.000243775
0.000245115
0.000246379
0.000247577
0.000248656
0.000249619
0.000250412
0.00025099
0.000251325
0.000251325
0.00025099
0.000250412
0.000249619
0.000248656
0.000247577
0.000246379
0.000245115
0.000243775
0.000242312
0.000227337
0.000229037
0.000230585
0.000232037
0.000233348
0.000234587
0.000235699
0.000236615
0.000237284
0.000237672
0.000237672
0.000237284
0.000236615
0.000235699
0.000234587
0.000233348
0.000232037
0.000230585
0.000229037
0.000227337
0.000213575
0.000215535
0.000217308
0.00021888
0.000220358
0.000221766
0.000223029
0.000224072
0.000224834
0.000225277
0.000225277
0.000224834
0.000224072
0.000223029
0.000221766
0.000220358
0.00021888
0.000217308
0.000215535
0.000213575
0.000201062
0.000203308
0.000205231
0.000206987
0.000208654
0.000210236
0.000211656
0.000212828
0.000213686
0.000214185
0.000214185
0.000213686
0.000212828
0.000211656
0.000210236
0.000208654
0.000206987
0.000205231
0.000203308
0.000201062
0.000189826
0.000192286
0.000194435
0.00019641
0.00019828
0.000200043
0.000201622
0.000202926
0.00020388
0.000204437
0.000204437
0.00020388
0.000202926
0.000201622
0.000200043
0.00019828
0.00019641
0.000194435
0.000192286
0.000189826
0.000179812
0.000182552
0.000184972
0.000187189
0.000189272
0.000191224
0.000192967
0.000194404
0.000195456
0.00019607
0.00019607
0.000195456
0.000194404
0.000192967
0.000191224
0.000189272
0.000187189
0.000184972
0.000182552
0.000179812
0.000171075
0.000174153
0.000176873
0.000179352
0.000181665
0.000183814
0.000185725
0.000187297
0.000188446
0.000189118
0.000189118
0.000188446
0.000187297
0.000185725
0.000183814
0.000181665
0.000179352
0.000176873
0.000174153
0.000171075
0.000163659
0.000167116
0.000170163
0.000172927
0.000175487
0.000177845
0.000179928
0.000181634
0.000182881
0.000183609
0.000183609
0.000182881
0.000181634
0.000179928
0.000177845
0.000175487
0.000172927
0.000170163
0.000167116
0.000163659
0.000157601
0.000161465
0.000164868
0.000167942
0.000170768
0.000173347
0.000175606
0.000177447
0.000178787
0.00017957
0.00017957
0.000178787
0.000177447
0.000175606
0.000173347
0.000170768
0.000167942
0.000164868
0.000161465
0.000157601
0.000152935
0.000157229
0.000161015
0.000164427
0.00016754
0.00017035
0.000172789
0.000174762
0.000176194
0.000177028
0.000177028
0.000176194
0.000174762
0.000172789
0.00017035
0.00016754
0.000164427
0.000161015
0.000157229
0.000152935
0.000149703
0.000154448
0.000158642
0.000162419
0.000165839
0.000168892
0.000171511
0.000173614
0.000175132
0.000176014
0.000176014
0.000175132
0.000173614
0.000171511
0.000168892
0.000165839
0.000162419
0.000158642
0.000154448
0.000149703
0.000147962
0.000153171
0.000157799
0.000161965
0.000165711
0.000169015
0.000171814
0.00017404
0.000175637
0.000176561
0.000176561
0.000175637
0.00017404
0.000171814
0.000169015
0.000165711
0.000161965
0.000157799
0.000153171
0.000147962
0.000147782
0.000153465
0.000158548
0.000163125
0.000167211
0.000170769
0.000173742
0.000176083
0.000177752
0.000178712
0.000178712
0.000177752
0.000176083
0.000173742
0.000170769
0.000167211
0.000163125
0.000158548
0.000153465
0.000147782
0.00014925
0.000155414
0.000160967
0.000165971
0.000170404
0.000174212
0.000177349
0.000179792
0.000181522
0.000182511
0.000182511
0.000181522
0.000179792
0.000177349
0.000174212
0.000170404
0.000165971
0.000160967
0.000155414
0.00014925
0.000152468
0.000159115
0.00016515
0.000170586
0.000175359
0.000179404
0.000182689
0.000185217
0.000186994
0.000188003
0.000188003
0.000186994
0.000185217
0.000182689
0.000179404
0.000175359
0.000170586
0.00016515
0.000159115
0.000152468
0.000157549
0.00016468
0.000171199
0.000177057
0.00018215
0.000186404
0.000189811
0.000192403
0.000194211
0.000195229
0.000195229
0.000194211
0.000192403
0.000189811
0.000186404
0.00018215
0.000177057
0.000171199
0.00016468
0.000157549
0.00016461
0.000172224
0.000179215
0.000185467
0.000190837
0.000195259
0.000198752
0.00020138
0.000203198
0.000204215
0.000204215
0.000203198
0.00020138
0.000198752
0.000195259
0.000190837
0.000185467
0.000179215
0.000172224
0.00016461
0.00017377
0.00018186
0.00018929
0.000195877
0.000201459
0.000205991
0.000209522
0.00021215
0.000213955
0.000214955
0.000214955
0.000213955
0.00021215
0.000209522
0.000205991
0.000201459
0.000195877
0.00018929
0.00018186
0.00017377
0.000185132
0.000193674
0.000201482
0.000208315
0.000214017
0.000218581
0.000222089
0.000224674
0.000226435
0.000227404
0.000227404
0.000226435
0.000224674
0.000222089
0.000218581
0.000214017
0.000208315
0.000201482
0.000193674
0.000185132
0.000198773
0.000207714
0.000215799
0.000222751
0.000228454
0.000232953
0.000236366
0.000238855
0.000240538
0.000241459
0.000241459
0.000240538
0.000238855
0.000236366
0.000232953
0.000228454
0.000222751
0.000215799
0.000207714
0.000198773
0.000214722
0.000223962
0.000232176
0.000239083
0.000244641
0.000248965
0.000252199
0.000254532
0.0002561
0.000256955
0.000256955
0.0002561
0.000254532
0.000252199
0.000248965
0.000244641
0.000239083
0.000232176
0.000223962
0.000214722
0.000232938
0.000242313
0.00025047
0.00025713
0.00026237
0.000266382
0.000269353
0.000271477
0.000272893
0.000273664
0.000273664
0.000272893
0.000271477
0.000269353
0.000266382
0.00026237
0.00025713
0.00025047
0.000242313
0.000232938
0.000253312
0.000262588
0.000270334
0.000276552
0.000281354
0.000284953
0.000287575
0.000289425
0.000290646
0.000291309
0.000291309
0.000290646
0.000289425
0.000287575
0.000284953
0.000281354
0.000276552
0.000270334
0.000262588
0.000253312
0.00027539
0.000284307
0.00029151
0.000297107
0.000301306
0.000304368
0.000306549
0.000308059
0.000309045
0.000309581
0.000309581
0.000309045
0.000308059
0.000306549
0.000304368
0.000301306
0.000297107
0.00029151
0.000284307
0.00027539
0.000298901
0.000307273
0.000313686
0.000318441
0.000321865
0.000324273
0.000325933
0.000327055
0.000327778
0.000328174
0.000328174
0.000327778
0.000327055
0.000325933
0.000324273
0.000321865
0.000318441
0.000313686
0.000307273
0.000298901
0.000323611
0.000331129
0.000336456
0.000340148
0.000342651
0.000344314
0.000345403
0.00034611
0.000346559
0.000346812
0.000346812
0.000346559
0.00034611
0.000345403
0.000344314
0.000342651
0.000340148
0.000336456
0.000331129
0.000323611
0.000349161
0.000355447
0.00035938
0.000361813
0.000363292
0.000364169
0.000364679
0.000364978
0.000365162
0.000365281
0.000365281
0.000365162
0.000364978
0.000364679
0.000364169
0.000363292
0.000361813
0.00035938
0.000355447
0.000349161
0.000375176
0.000379774
0.000381997
0.00038303
0.000383457
0.000383573
0.000383547
0.000383481
0.000383435
0.000383438
0.000383438
0.000383435
0.000383481
0.000383547
0.000383573
0.000383457
0.00038303
0.000381997
0.000379774
0.000375176
0.000401383
0.000403625
0.000403816
0.000403405
0.000402857
0.000402325
0.00040187
0.000401524
0.000401306
0.000401222
0.000401222
0.000401306
0.000401524
0.00040187
0.000402325
0.000402857
0.000403405
0.000403816
0.000403625
0.000401383
0.000427907
0.000426398
0.000424257
0.000422546
0.000421262
0.0004203
0.000419588
0.000419087
0.000418778
0.00041865
0.00041865
0.000418778
0.000419087
0.000419588
0.0004203
0.000421262
0.000422546
0.000424257
0.000426398
0.000427907
0.000456718
0.000446897
0.000442533
0.000440083
0.00043853
0.000437473
0.000436737
0.000436237
0.000435931
0.000435806
0.000435806
0.000435931
0.000436237
0.000436737
0.000437473
0.00043853
0.000440083
0.000442533
0.000446897
0.000456718
0.000423297
0.000423168
0.00042303
0.000422884
0.00042273
0.000422567
0.000422399
0.000422229
0.000422059
0.000421891
0.000421727
0.000421566
0.000421409
0.000421254
0.000421101
0.00042095
0.0004208
0.000420652
0.000420504
0.000420355
0.000420209
0.000420068
0.000419931
0.000419799
0.000419673
0.000419552
0.000419438
0.00041933
0.00041923
0.000419136
0.00041905
0.000418972
0.000418901
0.000418839
0.000418785
0.000418728
0.00041866
0.00041859
0.000418611
0.000418745
0.000399583
0.000399348
0.000399093
0.000398821
0.000398535
0.000398234
0.000397929
0.000397623
0.000397321
0.000397032
0.000396755
0.000396491
0.000396238
0.000395993
0.000395753
0.000395517
0.000395281
0.000395047
0.000394811
0.000394563
0.00039432
0.000394083
0.000393854
0.000393632
0.000393419
0.000393216