/*--------------------------------*- C++ -*----------------------------------*\
  =========                 |
  \\      /  F ield         | OpenFOAM: The Open Source CFD Toolbox
   \\    /   O peration     | Website:  https://openfoam.org
    \\  /    A nd           | Version:  6
     \\/     M anipulation  |
\*---------------------------------------------------------------------------*/
FoamFile
{
    version     2.0;
    format      ascii;
    class       volScalarField;
    location    "10";
    object      chargeDensity;
}
// * * * * * * * * * * * * * * * * * * * * * * * * * * * * * * * * * * * * * //

dimensions      [0 -3 1 0 0 1 0];

internalField   nonuniform List<scalar> 
8800
(
0.000508933
0.000510201
0.000510725
0.000510914
0.000510919
0.000510826
0.000510669
0.000510477
0.000510251
0.000509994
0.000509706
0.000509386
0.000509037
0.000508659
0.000508253
0.000507821
0.000507365
0.000506888
0.00050639
0.000505876
0.000505346
0.000504801
0.000504238
0.000503654
0.000503045
0.000502414
0.000501754
0.000501058
0.000500319
0.000499528
0.000498686
0.000497796
0.000496866
0.000495911
0.000494956
0.000494014
0.0004931
0.000492223
0.000491386
0.000490593
0.000481489
0.000482556
0.000483134
0.000483334
0.000483348
0.00048327
0.000483139
0.00048297
0.000482769
0.000482536
0.000482274
0.000481982
0.000481662
0.000481313
0.000480938
0.000480538
0.000480114
0.000479669
0.000479205
0.000478723
0.000478226
0.000477714
0.000477183
0.000476622
0.000476029
0.000475412
0.000474764
0.000474079
0.000473349
0.000472569
0.000471736
0.000470856
0.000469937
0.000468995
0.000468053
0.000467127
0.000466231
0.000465372
0.000464554
0.000463782
0.000454188
0.000455395
0.000455966
0.000456193
0.000456235
0.000456182
0.000456073
0.000455927
0.00045575
0.000455543
0.000455306
0.000455041
0.000454748
0.000454426
0.000454078
0.000453704
0.000453306
0.000452884
0.000452442
0.000451981
0.000451503
0.000451008
0.000450489
0.000449922
0.000449324
0.000448699
0.000448042
0.000447348
0.000446611
0.000445823
0.000444985
0.000444103
0.000443184
0.000442244
0.000441308
0.000440393
0.00043951
0.000438669
0.000437872
0.000437123
0.000427323
0.000428816
0.000429446
0.000429686
0.000429738
0.000429698
0.000429607
0.000429481
0.000429326
0.000429141
0.000428928
0.000428686
0.000428415
0.000428115
0.000427785
0.000427428
0.000427043
0.000426632
0.000426197
0.00042574
0.000425261
0.000424761
0.000424227
0.000423627
0.000423002
0.000422348
0.000421663
0.000420942
0.00042018
0.000419371
0.000418515
0.000417618
0.000416688
0.000415742
0.000414805
0.000413893
0.00041302
0.000412193
0.000411414
0.000410687
0.000401089
0.000402893
0.000403627
0.000403896
0.00040396
0.000403932
0.000403854
0.000403744
0.000403606
0.00040344
0.000403244
0.000403018
0.00040276
0.00040247
0.000402147
0.000401793
0.000401406
0.000400989
0.000400542
0.000400068
0.000399568
0.000399039
0.000398447
0.000397803
0.00039713
0.00039643
0.000395699
0.000394935
0.000394136
0.000393293
0.000392407
0.000391486
0.000390536
0.000389574
0.000388627
0.000387712
0.000386843
0.000386026
0.000385261
0.000384552
0.000375574
0.000377739
0.000378604
0.000378917
0.000378997
0.000378978
0.000378909
0.00037881
0.000378681
0.000378524
0.000378335
0.000378113
0.000377856
0.000377563
0.000377233
0.000376865
0.000376459
0.000376016
0.000375538
0.000375027
0.000374482
0.000373898
0.000373222
0.000372514
0.000371777
0.000371014
0.000370224
0.000369406
0.000368557
0.000367671
0.000366746
0.000365792
0.000364814
0.000363827
0.000362863
0.000361938
0.000361065
0.000360252
0.000359496
0.000358798
0.000350854
0.000353438
0.000354459
0.000354826
0.000354923
0.00035491
0.000354844
0.000354746
0.000354617
0.000354457
0.000354263
0.000354031
0.000353761
0.000353449
0.000353093
0.000352694
0.00035225
0.000351763
0.000351234
0.000350666
0.000350057
0.000349394
0.000348612
0.000347824
0.000347009
0.000346172
0.000345312
0.000344429
0.000343524
0.000342586
0.000341614
0.000340618
0.000339605
0.000338586
0.000337597
0.000336654
0.000335772
0.000334955
0.0003342
0.000333508
0.000326996
0.000330048
0.000331247
0.000331675
0.00033179
0.000331778
0.000331707
0.000331599
0.000331458
0.000331282
0.000331068
0.000330813
0.000330512
0.000330164
0.000329766
0.000329318
0.000328819
0.00032827
0.000327673
0.00032703
0.000326334
0.000325535
0.000324674
0.000323797
0.000322894
0.000321974
0.000321036
0.000320082
0.000319111
0.000318115
0.000317088
0.000316043
0.000314985
0.000313928
0.000312907
0.000311939
0.000311039
0.000310212
0.000309451
0.000308755
0.000304056
0.000307609
0.000309002
0.000309496
0.000309628
0.000309612
0.000309526
0.000309398
0.000309232
0.000309027
0.000308778
0.000308483
0.000308137
0.000307737
0.000307281
0.000306768
0.000306198
0.000305572
0.000304893
0.00030416
0.000303362
0.000302422
0.000301468
0.000300495
0.000299499
0.00029849
0.000297469
0.000296435
0.000295392
0.000294329
0.000293237
0.000292134
0.000291024
0.000289918
0.000288857
0.000287858
0.000286934
0.000286089
0.000285316
0.000284608
0.000282073
0.000286144
0.000287738
0.000288303
0.000288449
0.000288422
0.000288314
0.000288155
0.000287952
0.000287704
0.000287408
0.000287058
0.000286652
0.000286186
0.000285659
0.000285068
0.000284415
0.000283701
0.000282928
0.000282094
0.000281167
0.000280102
0.000279051
0.00027798
0.000276888
0.000275787
0.000274677
0.000273557
0.000272433
0.000271293
0.000270125
0.000268952
0.000267776
0.000266615
0.000265506
0.000264465
0.000263509
0.000262639
0.000261845
0.000261117
0.000261077
0.000265661
0.000267459
0.000268094
0.000268252
0.000268209
0.00026807
0.000267871
0.000267621
0.000267319
0.000266962
0.000266547
0.000266069
0.000265527
0.000264917
0.000264239
0.000263493
0.000262683
0.00026181
0.000260868
0.000259771
0.000258625
0.000257477
0.000256309
0.00025512
0.000253925
0.000252724
0.00025151
0.000250295
0.000249064
0.000247809
0.000246552
0.000245295
0.00024407
0.000242894
0.000241797
0.000240795
0.000239888
0.000239062
0.000238303
0.000241082
0.000246158
0.000248154
0.000248859
0.000249026
0.000248963
0.000248787
0.00024854
0.000248234
0.000247869
0.000247443
0.000246953
0.000246395
0.000245768
0.000245069
0.000244298
0.000243455
0.000242545
0.00024157
0.000240518
0.000239272
0.000238037
0.000236795
0.000235535
0.000234249
0.000232959
0.000231663
0.000230346
0.000229034
0.000227704
0.000226355
0.000224991
0.000223627
0.000222298
0.00022103
0.000219855
0.000218792
0.000217836
0.000216969
0.000216173
0.000222098
0.000227625
0.000229809
0.00023058
0.000230754
0.000230668
0.00023045
0.00023015
0.000229781
0.000229347
0.000228846
0.000228275
0.000227632
0.000226916
0.000226124
0.000225258
0.000224319
0.00022331
0.000222232
0.000221009
0.000219697
0.000218376
0.000217047
0.000215698
0.000214316
0.000212933
0.000211541
0.000210135
0.000208716
0.000207269
0.000205792
0.000204289
0.000202782
0.000201311
0.000199916
0.000198635
0.000197487
0.000196468
0.000195549
0.000194706
0.000204124
0.000210048
0.000212403
0.000213235
0.000213415
0.000213303
0.000213041
0.000212684
0.00021225
0.000211743
0.000211164
0.00021051
0.000209781
0.000208974
0.000208091
0.000207132
0.000206098
0.000204994
0.00020382
0.000202454
0.000201071
0.000199668
0.000198259
0.000196827
0.000195369
0.000193899
0.000192415
0.000190907
0.00018937
0.000187786
0.000186149
0.000184468
0.00018277
0.00018111
0.000179541
0.000178112
0.00017685
0.000175745
0.000174757
0.000173857
0.000187154
0.00019341
0.000195914
0.000196801
0.000196985
0.000196847
0.00019654
0.000196126
0.000195626
0.000195046
0.000194388
0.000193652
0.000192837
0.000191943
0.000190972
0.000189924
0.000188802
0.000187606
0.0001863
0.000184858
0.00018341
0.000181944
0.000180464
0.00017896
0.000177428
0.000175878
0.000174304
0.000172691
0.000171024
0.00016928
0.000167449
0.000165541
0.000163596
0.000161684
0.00015988
0.000158252
0.000156832
0.000155609
0.00015453
0.000153555
0.000171177
0.000177691
0.000180319
0.000181254
0.000181441
0.000181277
0.000180927
0.000180456
0.000179891
0.00017924
0.000178506
0.00017769
0.000176794
0.000175817
0.000174763
0.000173633
0.00017243
0.000171158
0.000169717
0.000168234
0.00016673
0.000165207
0.000163666
0.0001621
0.000160505
0.000158884
0.000157224
0.000155504
0.000153697
0.000151769
0.000149704
0.000147515
0.000145254
0.000143015
0.000140902
0.000139005
0.000137373
0.000135988
0.000134785
0.000133628
0.000156182
0.000162872
0.000165596
0.00016657
0.000166758
0.00016657
0.000166178
0.000165655
0.000165028
0.000164309
0.000163504
0.000162614
0.000161642
0.00016059
0.000159461
0.000158258
0.000156983
0.000155623
0.000154101
0.000152573
0.000151023
0.000149452
0.000147862
0.000146247
0.0001446
0.000142919
0.000141182
0.000139357
0.0001374
0.000135264
0.000132922
0.000130389
0.000127734
0.000125079
0.000122564
0.000120315
0.000118398
0.000116797
0.000115426
0.000114108
0.000142147
0.000148934
0.000151723
0.000152726
0.000152914
0.000152704
0.000152274
0.000151701
0.000151017
0.000150236
0.000149365
0.000148407
0.000147368
0.000146248
0.000145053
0.000143786
0.00014245
0.000140961
0.000139423
0.00013786
0.000136272
0.000134665
0.000133039
0.000131388
0.000129706
0.000127978
0.000126176
0.000124249
0.000122134
0.000119765
0.0001171
0.000114155
0.000111016
0.00010784
0.000104817
0.000102114
9.9825e-05
9.79365e-05
9.62418e-05
9.48894e-05
0.000129049
0.000135855
0.00013868
0.000139703
0.000139888
0.000139657
0.000139193
0.000138575
0.000137839
0.000137002
0.000136071
0.000135053
0.000133952
0.000132773
0.00013152
0.000130198
0.000128803
0.00012723
0.00012566
0.000124068
0.000122454
0.000120822
0.000119174
0.000117505
0.000115805
0.000114049
0.000112195
0.000110173
0.000107893
0.000105265
0.000102228
9.87935e-05
9.50697e-05
9.12565e-05
8.76006e-05
8.43253e-05
8.1561e-05
7.92986e-05
7.72973e-05
7.58488e-05
0.000116861
0.000123614
0.000126447
0.000127478
0.000127658
0.000127408
0.000126912
0.000126254
0.000125471
0.000124583
0.000123599
0.000122527
0.000121373
0.000120141
0.000118838
0.000117468
0.000115944
0.000114372
0.000112779
0.000111165
0.000109535
0.000107893
0.000106242
0.000104575
0.000102877
0.000101114
9.92239e-05
9.7114e-05
9.46635e-05
9.17483e-05
8.82838e-05
8.42754e-05
7.98542e-05
7.52714e-05
7.08433e-05
6.68616e-05
6.3502e-05
6.07501e-05
5.84386e-05
5.68547e-05
0.000105553
0.00011219
0.000115003
0.000116031
0.000116203
0.000115934
0.00011541
0.000114715
0.000113891
0.000112956
0.000111924
0.000110804
0.000109602
0.000108324
0.000106976
0.000105544
0.000103946
0.00010235
0.000100739
9.91146e-05
9.74815e-05
9.58468e-05
9.42122e-05
9.25699e-05
9.08973e-05
8.91479e-05
8.72398e-05
8.50497e-05
8.24196e-05
7.91858e-05
7.52322e-05
7.05557e-05
6.53125e-05
5.98144e-05
5.44601e-05
4.96227e-05
4.55327e-05
4.20711e-05
3.95025e-05
3.77668e-05
9.50925e-05
0.000101557
0.000104326
0.000105342
0.000105503
0.000105214
0.000104663
0.000103935
0.000103071
0.000102095
0.000101019
9.98536e-05
9.86073e-05
9.72859e-05
9.58955e-05
9.43311e-05
9.27342e-05
9.11224e-05
8.95012e-05
8.78773e-05
8.62582e-05
8.46508e-05
8.3056e-05
8.14624e-05
7.98393e-05
7.81253e-05
7.62145e-05
7.39492e-05
7.11269e-05
6.75362e-05
6.30229e-05
5.75723e-05
5.13695e-05
4.47967e-05
3.83491e-05
3.24948e-05
2.75288e-05
2.33444e-05
2.03853e-05
1.84489e-05
8.54461e-05
9.16912e-05
9.4395e-05
9.53887e-05
9.55335e-05
9.52251e-05
9.4647e-05
9.38861e-05
9.29854e-05
9.19688e-05
9.08504e-05
8.96419e-05
8.83521e-05
8.69876e-05
8.549e-05
8.38827e-05
8.22677e-05
8.06451e-05
7.90251e-05
7.74177e-05
7.58321e-05
7.42745e-05
7.27435e-05
7.12229e-05
6.96725e-05
6.80135e-05
6.61129e-05
6.37728e-05
6.07391e-05
5.67441e-05
5.15883e-05
4.52435e-05
3.79286e-05
3.01082e-05
2.2389e-05
1.53463e-05
9.33887e-06
4.36816e-06
9.49407e-07
-1.23886e-06
7.65769e-05
8.25656e-05
8.51861e-05
8.61483e-05
8.62725e-05
8.59415e-05
8.53355e-05
8.45413e-05
8.36031e-05
8.25455e-05
8.13838e-05
8.01303e-05
7.87949e-05
7.73635e-05
7.57499e-05
7.41303e-05
7.25021e-05
7.0879e-05
6.92755e-05
6.77037e-05
6.61732e-05
6.46886e-05
6.32452e-05
6.18206e-05
6.03634e-05
5.87756e-05
5.6893e-05
5.4472e-05
5.11983e-05
4.67391e-05
4.08428e-05
3.34665e-05
2.48705e-05
1.56159e-05
6.43736e-06
-1.97116e-06
-9.25998e-06
-1.50149e-05
-1.8939e-05
-2.14358e-05
6.84468e-05
7.41515e-05
7.66737e-05
7.75958e-05
7.76941e-05
7.73367e-05
7.66998e-05
7.58698e-05
7.4891e-05
7.37892e-05
7.258e-05
7.12767e-05
6.98901e-05
6.82887e-05
6.66686e-05
6.50318e-05
6.33995e-05
6.17908e-05
6.02224e-05
5.87073e-05
5.72542e-05
5.58652e-05
5.45311e-05
5.32223e-05
5.18748e-05
5.03691e-05
4.85061e-05
4.59893e-05
4.24356e-05
3.7437e-05
3.06834e-05
2.2118e-05
1.20532e-05
1.16429e-06
-9.66875e-06
-1.96191e-05
-2.83429e-05
-3.49283e-05
-3.94113e-05
-4.22823e-05
6.10168e-05
6.64183e-05
6.883e-05
6.9704e-05
6.97703e-05
6.93815e-05
6.87089e-05
6.78379e-05
6.6813e-05
6.56606e-05
6.43968e-05
6.30357e-05
6.14733e-05
5.98448e-05
5.8198e-05
5.65511e-05
5.49289e-05
5.3353e-05
5.18405e-05
5.04038e-05
4.90494e-05
4.77761e-05
4.65695e-05
4.5392e-05
4.41658e-05
4.27473e-05
4.08976e-05
3.82601e-05
3.43726e-05
2.87415e-05
2.09917e-05
1.10563e-05
-6.85418e-07
-1.34225e-05
-2.61111e-05
-3.77829e-05
-4.79428e-05
-5.54772e-05
-6.05924e-05
-6.39168e-05
5.42469e-05
5.93335e-05
6.1625e-05
6.24431e-05
6.24707e-05
6.20439e-05
6.13289e-05
6.04094e-05
5.93301e-05
5.8118e-05
5.67892e-05
5.5276e-05
5.36324e-05
5.19701e-05
5.03036e-05
4.86602e-05
4.70664e-05
4.55439e-05
4.41085e-05
4.27705e-05
4.15336e-05
4.03924e-05
3.93271e-05
3.82914e-05
3.71924e-05
3.58596e-05
3.40088e-05
3.12147e-05
2.69242e-05
2.05469e-05
1.16376e-05
1.25791e-07
-1.35226e-05
-2.83344e-05
-4.30839e-05
-5.66988e-05
-6.82737e-05
-7.67895e-05
-8.26058e-05
-8.6474e-05
4.80967e-05
5.28629e-05
5.50265e-05
5.5781e-05
5.57621e-05
5.52894e-05
5.4523e-05
5.35453e-05
5.24008e-05
5.11169e-05
4.96605e-05
4.80069e-05
4.63256e-05
4.46329e-05
4.29604e-05
4.13387e-05
3.97938e-05
3.83454e-05
3.70068e-05
3.57852e-05
3.46806e-05
3.36837e-05
3.27688e-05
3.18804e-05
3.09087e-05
2.96533e-05
2.77785e-05
2.478e-05
2.0001e-05
1.2742e-05
2.4837e-06
-1.08373e-05
-2.66427e-05
-4.37658e-05
-6.07773e-05
-7.66248e-05
-8.94743e-05
-9.89804e-05
-0.000105571
-0.00011008
4.25256e-05
4.6971e-05
4.90003e-05
4.96832e-05
4.96091e-05
4.90808e-05
4.82525e-05
4.72047e-05
4.59816e-05
4.45998e-05
4.29414e-05
4.12445e-05
3.9521e-05
3.78113e-05
3.61516e-05
3.45723e-05
3.30969e-05
3.17418e-05
3.05168e-05
2.94254e-05
2.8464e-05
2.76189e-05
2.68586e-05
2.61177e-05
2.52681e-05
2.40755e-05
2.21453e-05
1.88828e-05
1.35129e-05
5.21457e-06
-6.60818e-06
-2.19966e-05
-4.02276e-05
-5.99053e-05
-7.93667e-05
-9.72739e-05
-0.000111562
-0.000122137
-0.000129596
-0.000134845
3.74935e-05
4.16214e-05
4.35105e-05
4.41135e-05
4.39745e-05
4.33795e-05
4.24768e-05
4.13449e-05
4.00279e-05
3.84063e-05
3.6703e-05
3.49507e-05
3.31982e-05
3.14911e-05
2.98657e-05
2.83499e-05
2.69632e-05
2.57178e-05
2.46196e-05
2.36682e-05
2.28563e-05
2.21661e-05
2.15601e-05
2.09624e-05
2.02247e-05
1.90742e-05
1.70492e-05
1.34517e-05
7.3725e-06
-2.14385e-06
-1.57704e-05
-3.35057e-05
-5.44436e-05
-7.69227e-05
-9.9128e-05
-0.000118931
-0.000134638
-0.000146345
-0.000154772
-0.000160846
3.29608e-05
3.6777e-05
3.85206e-05
3.90345e-05
3.88195e-05
3.81455e-05
3.71543e-05
3.59228e-05
3.43922e-05
3.2678e-05
3.09019e-05
2.91067e-05
2.73457e-05
2.5664e-05
2.4095e-05
2.26624e-05
2.13809e-05
2.02581e-05
1.92958e-05
1.84899e-05
1.78297e-05
1.72934e-05
1.68374e-05
1.63747e-05
1.57342e-05
1.45997e-05
1.24333e-05
8.41965e-06
1.49854e-06
-9.43249e-06
-2.51209e-05
-4.54967e-05
-6.94255e-05
-9.49292e-05
-0.000120047
-0.000141597
-0.000158733
-0.000171658
-0.000181155
-0.000188105
2.88891e-05
3.24012e-05
3.3993e-05
3.44082e-05
3.41052e-05
3.33385e-05
3.22436e-05
3.08562e-05
2.91489e-05
2.7355e-05
2.55199e-05
2.3703e-05
2.19576e-05
2.03248e-05
1.88332e-05
1.75008e-05
1.63374e-05
1.53462e-05
1.45249e-05
1.38662e-05
1.33562e-05
1.29693e-05
1.26558e-05
1.23162e-05
1.17545e-05
1.06054e-05
8.24503e-06
3.72583e-06
-4.18053e-06
-1.6735e-05
-3.47536e-05
-5.80667e-05
-8.52658e-05
-0.000114012
-0.000141713
-0.000165165
-0.000183829
-0.000198089
-0.000208745
-0.000216568
2.52418e-05
2.84571e-05
2.9891e-05
3.01968e-05
2.97929e-05
2.89188e-05
2.77038e-05
2.6071e-05
2.4287e-05
2.24202e-05
2.05485e-05
1.87356e-05
1.70309e-05
1.54694e-05
1.40732e-05
1.28546e-05
1.18184e-05
1.09636e-05
1.02848e-05
9.77164e-06
9.40735e-06
9.1626e-06
8.98117e-06
8.75024e-06
8.24592e-06
7.04824e-06
4.43698e-06
-6.82336e-07
-9.72252e-06
-2.41124e-05
-4.47265e-05
-7.12598e-05
-0.000101986
-0.000134446
-0.000164285
-0.000189593
-0.000209877
-0.000225598
-0.000237445
-0.000245962
2.19829e-05
2.49092e-05
2.61788e-05
2.63636e-05
2.58449e-05
2.48479e-05
2.34043e-05
2.16571e-05
1.97828e-05
1.78647e-05
1.59844e-05
1.4203e-05
1.25632e-05
1.10922e-05
9.8056e-06
8.71014e-06
7.80622e-06
7.08941e-06
6.55129e-06
6.17914e-06
5.95353e-06
5.84141e-06
5.77971e-06
5.641e-06
5.1706e-06
3.88813e-06
9.67251e-07
-4.8474e-06
-1.51673e-05
-3.15952e-05
-5.50499e-05
-8.50501e-05
-0.000119453
-0.000155082
-0.000187385
-0.000214691
-0.00023675
-0.000254041
-0.000266837
-0.000275691
1.90781e-05
2.17231e-05
2.28217e-05
2.28732e-05
2.22248e-05
2.10882e-05
1.94179e-05
1.75697e-05
1.56263e-05
1.3686e-05
1.18273e-05
1.01038e-05
8.54954e-06
7.18406e-06
6.01664e-06
5.04935e-06
4.27898e-06
3.6983e-06
3.29655e-06
3.05881e-06
2.96316e-06
2.97277e-06
3.01716e-06
2.95301e-06
2.49202e-06
1.08804e-06
-2.2001e-06
-8.80017e-06
-2.05328e-05
-3.91751e-05
-6.56727e-05
-9.93442e-05
-0.000137864
-0.000176152
-0.000210836
-0.000240227
-0.000264239
-0.000282817
-0.000296169
-0.000305766
1.6495e-05
1.8866e-05
1.97864e-05
1.96918e-05
1.88984e-05
1.74921e-05
1.57339e-05
1.37982e-05
1.18153e-05
9.88507e-06
8.07666e-06
6.43345e-06
4.98034e-06
3.72986e-06
2.68622e-06
1.84785e-06
1.20888e-06
7.59929e-07
4.88278e-07
3.77004e-07
4.01691e-07
5.21466e-07
6.57826e-07
6.50241e-07
1.74231e-07
-1.3866e-06
-5.09493e-06
-1.25584e-05
-2.5811e-05
-4.67979e-05
-7.64629e-05
-0.000113846
-0.000155822
-0.000197051
-0.000234211
-0.000265834
-0.000291806
-0.000310828
-0.000325408
-0.000335834
1.42032e-05
1.63066e-05
1.70414e-05
1.67868e-05
1.58292e-05
1.42069e-05
1.2335e-05
1.03394e-05
8.35154e-06
6.46238e-06
4.72832e-06
3.18149e-06
1.83858e-06
7.06633e-07
-2.13663e-07
-9.26233e-07
-1.43875e-06
-1.76223e-06
-1.91113e-06
-1.90438e-06
-1.7691e-06
-1.55059e-06
-1.33608e-06
-1.30455e-06
-1.81875e-06
-3.56842e-06
-7.74118e-06
-1.61263e-05
-3.09668e-05
-5.43616e-05
-8.72385e-05
-0.000128474
-0.000173386
-0.000217376
-0.000257009
-0.000291198
-0.000317726
-0.000338019
-0.000353999
-0.000365304
1.21741e-05
1.40152e-05
1.45571e-05
1.41283e-05
1.28963e-05
1.11734e-05
9.2157e-06
7.19559e-06
5.23676e-06
3.41464e-06
1.77134e-06
3.28902e-07
-9.02119e-07
-1.91805e-06
-2.71998e-06
-3.31301e-06
-3.70592e-06
-3.9111e-06
-3.94476e-06
-3.82808e-06
-3.59125e-06
-3.28456e-06
-3.00468e-06
-2.95014e-06
-3.52333e-06
-5.48848e-06
-1.01575e-05
-1.94954e-05
-3.5938e-05
-6.17066e-05
-9.76859e-05
-0.000141983
-0.000189852
-0.000236436
-0.000278371
-0.000314812
-0.00034174
-0.000363629
-0.000381004
-0.000393327
1.03812e-05
1.19643e-05
1.23047e-05
1.16882e-05
1.02264e-05
8.38659e-06
6.37774e-06
4.37014e-06
2.46889e-06
7.30802e-07
-8.15109e-07
-2.15411e-06
-3.27887e-06
-4.18669e-06
-4.87881e-06
-5.36054e-06
-5.64143e-06
-5.73531e-06
-5.66044e-06
-5.44074e-06
-5.11004e-06
-4.7242e-06
-4.39012e-06
-4.32667e-06
-4.97636e-06
-7.17676e-06
-1.23585e-05
-2.26482e-05
-4.06471e-05
-6.86533e-05
-0.000107442
-0.000154332
-0.00020473
-0.000253553
-0.000297644
-0.000335118
-0.000363091
-0.000386443
-0.000405088
-0.000418652
8.79972e-06
1.01289e-05
1.02578e-05
9.37167e-06
7.77246e-06
5.8463e-06
3.82589e-06
1.86293e-06
3.76453e-08
-1.61112e-06
-3.06385e-06
-4.30912e-06
-5.33953e-06
-6.15111e-06
-6.74397e-06
-7.12315e-06
-7.29905e-06
-7.28734e-06
-7.10901e-06
-6.79136e-06
-6.37254e-06
-5.9147e-06
-5.53562e-06
-5.47497e-06
-6.21484e-06
-8.66256e-06
-1.4357e-05
-2.55631e-05
-4.50113e-05
-7.50737e-05
-0.000115951
-0.000165045
-0.000217429
-0.000267895
-0.000313438
-0.000351426
-0.000380486
-0.000404874
-0.000424445
-0.000439335
0.000489858
0.000489181
0.000488559
0.000487979
0.000487438
0.000486947
0.00048652
0.000486174
0.000485923
0.000485761
0.000485761
0.000485923
0.000486174
0.00048652
0.000486947
0.000487438
0.000487979
0.000488559
0.000489181
0.000489858
0.000463067
0.00046241
0.000461808
0.000461247
0.000460716
0.000460229
0.000459804
0.00045946
0.000459209
0.000459048
0.000459048
0.000459209
0.00045946
0.000459804
0.000460229
0.000460716
0.000461247
0.000461808
0.00046241
0.000463067
0.00043643
0.000435797
0.000435218
0.000434679
0.000434183
0.000433706
0.00043329
0.000432954
0.000432709
0.000432548
0.000432548
0.000432709
0.000432954
0.00043329
0.000433706
0.000434183
0.000434679
0.000435218
0.000435797
0.00043643
0.000410018
0.000409411
0.000408858
0.000408343
0.000407868
0.000407433
0.000407032
0.000406709
0.000406475
0.000406318
0.000406318
0.000406475
0.000406709
0.000407032
0.000407433
0.000407868
0.000408343
0.000408857
0.000409411
0.000410018
0.000383904
0.00038332
0.000382791
0.000382303
0.000381851
0.000381458
0.000381078
0.00038077
0.000380548
0.000380397
0.000380397
0.000380548
0.00038077
0.000381078
0.000381458
0.000381851
0.000382303
0.000382791
0.00038332
0.000383904
0.000358166
0.000357601
0.000357092
0.000356624
0.000356191
0.000355808
0.000355473
0.000355181
0.000354969
0.000354822
0.000354822
0.000354969
0.000355181
0.000355473
0.000355808
0.00035619
0.000356624
0.000357091
0.000357601
0.000358166
0.000332883
0.000332329
0.000331832
0.000331376
0.000330953
0.000330579
0.000330268
0.000329986
0.000329782
0.000329637
0.000329637
0.000329782
0.000329986
0.000330268
0.000330578
0.000330953
0.000331376
0.000331831
0.000332328
0.000332883
0.00030813
0.000307576
0.000307081
0.000306626
0.000306202
0.000305824
0.000305513
0.000305234
0.000305032
0.000304885
0.000304885
0.000305032
0.000305234
0.000305513
0.000305823
0.000306202
0.000306626
0.000307081
0.000307576
0.000308129
0.000283972
0.000283409
0.000282903
0.000282436
0.000281995
0.000281599
0.000281257
0.000280972
0.000280764
0.000280611
0.000280611
0.000280764
0.000280972
0.000281257
0.000281598
0.000281995
0.000282435
0.000282902
0.000283408
0.000283972
0.000260459
0.000259875
0.000259346
0.000258852
0.00025838
0.000257949
0.000257545
0.000257242
0.00025702
0.000256857
0.000256857
0.00025702
0.000257242
0.000257545
0.000257949
0.00025838
0.000258851
0.000259346
0.000259874
0.000260459
0.000237617
0.000237003
0.000236441
0.000235906
0.000235387
0.000234857
0.000234412
0.000234078
0.000233835
0.000233657
0.000233657
0.000233834
0.000234078
0.000234411
0.000234857
0.000235387
0.000235906
0.00023644
0.000237002
0.000237616
0.000215452
0.000214802
0.000214197
0.000213608
0.000212954
0.000212364
0.000211877
0.000211503
0.00021123
0.000211034
0.000211033
0.00021123
0.000211503
0.000211877
0.000212364
0.000212954
0.000213607
0.000214196
0.000214801
0.000215451
0.000193944
0.000193253
0.000192547
0.000191819
0.000191137
0.000190496
0.000189947
0.000189522
0.000189213
0.000188995
0.000188995
0.000189213
0.000189522
0.000189946
0.000190495
0.000191137
0.000191818
0.000192546
0.000193252
0.000193943
0.000173047
0.00017221
0.000171442
0.000170692
0.000169943
0.000169226
0.000168604
0.00016812
0.00016777
0.000167529
0.000167529
0.00016777
0.00016812
0.000168604
0.000169225
0.000169942
0.000170692
0.000171442
0.000172209
0.000173046
0.000152571
0.000151736
0.000150949
0.000150142
0.000149314
0.000148511
0.000147808
0.000147259
0.000146865
0.0001466
0.0001466
0.000146865
0.000147259
0.000147808
0.00014851
0.000149313
0.000150141
0.000150948
0.000151735
0.00015257
0.000132629
0.000131783
0.000130961
0.000130092
0.000129179
0.000128283
0.000127493
0.000126875
0.000126436
0.000126147
0.000126147
0.000126436
0.000126875
0.000127493
0.000128282
0.000129178
0.000130091
0.00013096
0.000131782
0.000132627
0.000113098
0.000112237
0.00011138
0.000110445
0.000109442
0.000108447
0.000107567
0.000106878
0.000106394
0.000106084
0.000106084
0.000106394
0.000106878
0.000107567
0.000108447
0.000109442
0.000110445
0.000111379
0.000112236
0.000113097
9.38594e-05
9.29814e-05
9.20872e-05
9.10836e-05
8.9985e-05
8.88875e-05
8.79146e-05
8.71551e-05
8.66267e-05
8.62984e-05
8.62984e-05
8.66266e-05
8.7155e-05
8.79145e-05
8.88873e-05
8.99846e-05
9.10829e-05
9.20862e-05
9.29801e-05
9.38581e-05
7.47851e-05
7.38856e-05
7.29487e-05
7.18691e-05
7.06692e-05
6.94651e-05
6.83988e-05
6.75699e-05
6.70001e-05
6.66567e-05
6.66567e-05
6.7e-05
6.75698e-05
6.83987e-05
6.94649e-05
7.06688e-05
7.18684e-05
7.29476e-05
7.38842e-05
7.47838e-05
5.57396e-05
5.48067e-05
5.38152e-05
5.26487e-05
5.13399e-05
5.00257e-05
4.88663e-05
4.797e-05
4.73617e-05
4.70066e-05
4.70066e-05
4.73616e-05
4.797e-05
4.88662e-05
5.00256e-05
5.13395e-05
5.26479e-05
5.38141e-05
5.48053e-05
5.57383e-05
3.65789e-05
3.55924e-05
3.45268e-05
3.32574e-05
3.18304e-05
3.0403e-05
2.91513e-05
2.81901e-05
2.75459e-05
2.71823e-05
2.71822e-05
2.75458e-05
2.81901e-05
2.91513e-05
3.04028e-05
3.183e-05
3.32566e-05
3.45256e-05
3.55909e-05
3.65776e-05
1.71546e-05
1.60832e-05
1.49153e-05
1.35224e-05
1.19664e-05
1.04232e-05
9.08115e-06
8.0577e-06
7.37986e-06
7.01019e-06
7.01013e-06
7.37979e-06
8.05764e-06
9.08108e-06
1.04231e-05
1.1966e-05
1.35215e-05
1.4914e-05
1.60818e-05
1.71533e-05
-2.68518e-06
-3.8847e-06
-5.19178e-06
-6.73237e-06
-8.42774e-06
-1.00878e-05
-1.15174e-05
-1.26001e-05
-1.33096e-05
-1.36836e-05
-1.36836e-05
-1.33097e-05
-1.26002e-05
-1.15174e-05
-1.0088e-05
-8.42818e-06
-6.7332e-06
-5.193e-06
-3.88608e-06
-2.68627e-06
-2.30933e-05
-2.44764e-05
-2.59663e-05
-2.76796e-05
-2.95225e-05
-3.12977e-05
-3.28097e-05
-3.39478e-05
-3.46871e-05
-3.50643e-05
-3.50643e-05
-3.46872e-05
-3.39479e-05
-3.28097e-05
-3.12979e-05
-2.95229e-05
-2.76804e-05
-2.59675e-05
-2.44777e-05
-2.30942e-05
-4.42227e-05
-4.58541e-05
-4.75731e-05
-4.94805e-05
-5.14733e-05
-5.33571e-05
-5.49433e-05
-5.61313e-05
-5.68978e-05
-5.72773e-05
-5.72773e-05
-5.68979e-05
-5.61314e-05
-5.49433e-05
-5.33574e-05
-5.14738e-05
-4.94814e-05
-4.75742e-05
-4.58553e-05
-4.42233e-05
-6.6223e-05
-6.8171e-05
-7.01609e-05
-7.22741e-05
-7.44095e-05
-7.63884e-05
-7.80356e-05
-7.92648e-05
-8.00541e-05
-8.04347e-05
-8.04348e-05
-8.00541e-05
-7.92649e-05
-7.80357e-05
-7.63886e-05
-7.441e-05
-7.22748e-05
-7.01619e-05
-6.81719e-05
-6.62233e-05
-8.92343e-05
-9.15609e-05
-9.38498e-05
-9.61632e-05
-9.84202e-05
-0.000100471
-0.00010216
-0.000103416
-0.000104221
-0.000104601
-0.000104601
-0.000104221
-0.000103416
-0.00010216
-0.000100471
-9.84207e-05
-9.61638e-05
-9.38506e-05
-9.15616e-05
-8.92344e-05
-0.000113378
-0.000116125
-0.000118716
-0.000121199
-0.000123539
-0.000125628
-0.000127329
-0.000128593
-0.000129401
-0.000129776
-0.000129776
-0.000129401
-0.000128593
-0.000127329
-0.000125628
-0.00012354
-0.0001212
-0.000118717
-0.000116126
-0.000113378
-0.000138744
-0.000141915
-0.000144775
-0.000147367
-0.000149731
-0.000151809
-0.000153485
-0.000154729
-0.000155523
-0.000155887
-0.000155887
-0.000155523
-0.000154729
-0.000153485
-0.00015181
-0.000149732
-0.000147368
-0.000144775
-0.000141916
-0.000138744
-0.000165369
-0.000168913
-0.000171963
-0.000174572
-0.00017688
-0.000178883
-0.000180488
-0.00018168
-0.000182438
-0.000182783
-0.000182783
-0.000182438
-0.00018168
-0.000180488
-0.000178883
-0.00017688
-0.000174572
-0.000171964
-0.000168913
-0.000165368
-0.000193218
-0.000197014
-0.0002001
-0.000202619
-0.000204792
-0.000206642
-0.000208133
-0.000209235
-0.000209931
-0.000210243
-0.000210243
-0.000209931
-0.000209235
-0.000208133
-0.000206642
-0.000204792
-0.000202619
-0.0002001
-0.000197014
-0.000193217
-0.000222101
-0.000225964
-0.000228902
-0.000231258
-0.000233223
-0.00023486
-0.000236169
-0.000237131
-0.000237732
-0.000237992
-0.000237992
-0.000237732
-0.000237131
-0.000236169
-0.00023486
-0.000233224
-0.000231258
-0.000228901
-0.000225963
-0.000222099
-0.000251604
-0.000255451
-0.000258188
-0.000260251
-0.000261892
-0.000263227
-0.000264287
-0.00026506
-0.000265538
-0.000265733
-0.000265733
-0.000265538
-0.000265061
-0.000264287
-0.000263227
-0.000261893
-0.000260251
-0.000258188
-0.00025545
-0.000251602
-0.000281609
-0.000285294
-0.000287647
-0.000289251
-0.00029045
-0.000291404
-0.000292163
-0.000292719
-0.000293055
-0.000293179
-0.000293179
-0.000293055
-0.000292719
-0.000292163
-0.000291404
-0.00029045
-0.000289251
-0.000287647
-0.000285293
-0.000281607
-0.000311876
-0.000315137
-0.000316881
-0.000317871
-0.000318539
-0.000319069
-0.000319509
-0.00031984
-0.000320036
-0.000320092
-0.000320092
-0.000320036
-0.00031984
-0.000319509
-0.000319069
-0.000318539
-0.000317871
-0.00031688
-0.000315136
-0.000311874
-0.000342013
-0.000344539
-0.000345455
-0.000345727
-0.000345836
-0.000345952
-0.000346097
-0.00034623
-0.000346307
-0.000346308
-0.000346308
-0.000346307
-0.00034623
-0.000346097
-0.000345952
-0.000345835
-0.000345727
-0.000345454
-0.000344537
-0.000342011
-0.00037154
-0.000372995
-0.000372926
-0.00037247
-0.000372081
-0.000371865
-0.00037179
-0.000371782
-0.000371778
-0.000371746
-0.000371746
-0.000371778
-0.000371782
-0.00037179
-0.000371865
-0.00037208
-0.00037247
-0.000372925
-0.000372993
-0.000371538
-0.000399866
-0.000399923
-0.000398856
-0.000397816
-0.000397106
-0.000396715
-0.000396539
-0.000396474
-0.000396443
-0.000396402
-0.000396402
-0.000396443
-0.000396474
-0.000396539
-0.000396715
-0.000397106
-0.000397815
-0.000398855
-0.000399921
-0.000399864
-0.000426142
-0.000424622
-0.000422844
-0.000421585
-0.000420858
-0.000420509
-0.000420384
-0.000420361
-0.000420362
-0.000420345
-0.000420345
-0.000420362
-0.000420361
-0.000420384
-0.000420509
-0.000420857
-0.000421584
-0.000422843
-0.00042462
-0.00042614
-0.000448856
-0.000446305
-0.000444644
-0.00044377
-0.000443404
-0.000443338
-0.000443421
-0.000443543
-0.000443636
-0.000443676
-0.000443676
-0.000443636
-0.000443543
-0.000443421
-0.000443338
-0.000443404
-0.000443769
-0.000444643
-0.000446303
-0.000448854
0.000490594
0.000491386
0.000492223
0.0004931
0.000494015
0.000494956
0.000495912
0.000496866
0.000497796
0.000498686
0.000499528
0.000500319