/*--------------------------------*- C++ -*----------------------------------*\
  =========                 |
  \\      /  F ield         | OpenFOAM: The Open Source CFD Toolbox
   \\    /   O peration     | Website:  https://openfoam.org
    \\  /    A nd           | Version:  6
     \\/     M anipulation  |
\*---------------------------------------------------------------------------*/
FoamFile
{
    version     2.0;
    format      ascii;
    class       volVectorField;
    location    "10";
    object      elec;
}
// * * * * * * * * * * * * * * * * * * * * * * * * * * * * * * * * * * * * * //

dimensions      [1 1 -3 0 0 -1 0];

internalField   nonuniform List<vector> 
8800
(
(-9.18788 -137064 -0)
(-24.999 -137098 -0)
(-37.6961 -137160 -0)
(-49.7402 -137247 -0)
(-61.6819 -137358 -0)
(-73.6165 -137494 -0)
(-85.5078 -137653 -0)
(-97.289 -137837 -0)
(-108.894 -138045 -0)
(-120.275 -138275 -0)
(-131.397 -138528 -0)
(-142.224 -138803 -0)
(-152.724 -139100 -0)
(-162.861 -139418 -0)
(-172.6 -139755 -0)
(-181.905 -140112 -0)
(-190.734 -140487 -0)
(-199.044 -140879 -0)
(-206.787 -141288 -0)
(-213.911 -141711 -0)
(-220.359 -142148 -0)
(-226.071 -142598 -0)
(-230.99 -143058 -0)
(-235.075 -143527 -0)
(-238.291 -144004 -0)
(-240.589 -144487 -0)
(-241.911 -144973 -0)
(-242.213 -145461 -0)
(-241.469 -145949 -0)
(-239.676 -146434 -0)
(-236.852 -146915 -0)
(-233.02 -147390 -0)
(-228.209 -147856 -0)
(-222.445 -148311 -0)
(-215.728 -148754 -0)
(-208.033 -149183 -0)
(-199.335 -149595 -0)
(-189.614 -149989 -0)
(-178.866 -150362 -0)
(-167.115 -150712 -0)
(-24.8929 -132942 -0)
(-70.7134 -132973 -0)
(-110.801 -133032 -0)
(-148.521 -133118 -0)
(-185.417 -133230 -0)
(-221.925 -133366 -0)
(-258.073 -133528 -0)
(-293.77 -133713 -0)
(-328.896 -133923 -0)
(-363.34 -134156 -0)
(-396.995 -134412 -0)
(-429.76 -134690 -0)
(-461.536 -134990 -0)
(-492.217 -135312 -0)
(-521.695 -135653 -0)
(-549.855 -136014 -0)
(-576.575 -136394 -0)
(-601.723 -136791 -0)
(-625.156 -137205 -0)
(-646.721 -137634 -0)
(-666.252 -138077 -0)
(-683.579 -138532 -0)
(-698.539 -138998 -0)
(-711.015 -139474 -0)
(-720.909 -139957 -0)
(-728.074 -140447 -0)
(-732.35 -140941 -0)
(-733.609 -141436 -0)
(-731.769 -141932 -0)
(-726.799 -142426 -0)
(-718.714 -142916 -0)
(-707.55 -143400 -0)
(-693.355 -143876 -0)
(-676.17 -144341 -0)
(-655.989 -144794 -0)
(-632.759 -145232 -0)
(-606.423 -145654 -0)
(-576.944 -146057 -0)
(-544.327 -146439 -0)
(-508.634 -146797 -0)
(-40.1562 -129015 -0)
(-115.371 -129046 -0)
(-183.062 -129105 -0)
(-247.242 -129190 -0)
(-309.805 -129303 -0)
(-371.452 -129440 -0)
(-432.327 -129603 -0)
(-492.351 -129791 -0)
(-551.374 -130003 -0)
(-609.234 -130238 -0)
(-665.769 -130497 -0)
(-720.815 -130779 -0)
(-774.204 -131084 -0)
(-825.762 -131409 -0)
(-875.308 -131755 -0)
(-922.648 -132122 -0)
(-967.575 -132507 -0)
(-1009.87 -132910 -0)
(-1049.3 -133329 -0)
(-1085.6 -133765 -0)
(-1118.52 -134214 -0)
(-1147.76 -134677 -0)
(-1173.08 -135151 -0)
(-1194.3 -135635 -0)
(-1211.25 -136126 -0)
(-1223.67 -136625 -0)
(-1231.31 -137128 -0)
(-1233.94 -137633 -0)
(-1231.43 -138139 -0)
(-1223.69 -138644 -0)
(-1210.72 -139145 -0)
(-1192.53 -139641 -0)
(-1169.17 -140128 -0)
(-1140.67 -140605 -0)
(-1107.01 -141070 -0)
(-1068.11 -141520 -0)
(-1023.9 -141953 -0)
(-974.332 -142367 -0)
(-919.427 -142760 -0)
(-859.288 -143129 -0)
(-55.5351 -125281 -0)
(-160.215 -125312 -0)
(-255.543 -125371 -0)
(-346.468 -125458 -0)
(-435.152 -125571 -0)
(-522.423 -125710 -0)
(-608.484 -125875 -0)
(-693.268 -126064 -0)
(-776.602 -126279 -0)
(-858.285 -126518 -0)
(-938.103 -126781 -0)
(-1015.83 -127067 -0)
(-1091.24 -127375 -0)
(-1164.09 -127706 -0)
(-1234.11 -128057 -0)
(-1301.04 -128429 -0)
(-1364.59 -128820 -0)
(-1424.45 -129230 -0)
(-1480.29 -129657 -0)
(-1531.75 -130100 -0)
(-1578.47 -130558 -0)
(-1620.06 -131029 -0)
(-1656.19 -131512 -0)
(-1686.65 -132006 -0)
(-1711.17 -132508 -0)
(-1729.35 -133017 -0)
(-1740.84 -133532 -0)
(-1745.33 -134049 -0)
(-1742.61 -134568 -0)
(-1732.54 -135085 -0)
(-1715.04 -135600 -0)
(-1690.13 -136109 -0)
(-1657.79 -136610 -0)
(-1618.07 -137101 -0)
(-1570.9 -137580 -0)
(-1516.19 -138044 -0)
(-1453.85 -138491 -0)
(-1383.82 -138919 -0)
(-1306.14 -139324 -0)
(-1220.97 -139706 -0)
(-71.1424 -121735 -0)
(-205.647 -121767 -0)
(-328.831 -121827 -0)
(-446.732 -121915 -0)
(-561.861 -122029 -0)
(-675.146 -122170 -0)
(-786.816 -122336 -0)
(-896.795 -122529 -0)
(-1004.88 -122746 -0)
(-1110.84 -122989 -0)
(-1214.4 -123255 -0)
(-1315.29 -123546 -0)
(-1413.2 -123859 -0)
(-1507.83 -124195 -0)
(-1598.84 -124553 -0)
(-1685.88 -124931 -0)
(-1768.58 -125330 -0)
(-1846.54 -125747 -0)
(-1919.33 -126183 -0)
(-1986.5 -126635 -0)
(-2047.58 -127103 -0)
(-2102.08 -127584 -0)
(-2149.66 -128078 -0)
(-2190.01 -128583 -0)
(-2222.71 -129098 -0)
(-2247.24 -129620 -0)
(-2263.16 -130148 -0)
(-2270.07 -130680 -0)
(-2267.64 -131213 -0)
(-2255.66 -131746 -0)
(-2234.03 -132277 -0)
(-2202.67 -132802 -0)
(-2161.56 -133319 -0)
(-2110.68 -133827 -0)
(-2049.97 -134322 -0)
(-1979.28 -134803 -0)
(-1898.5 -135266 -0)
(-1807.57 -135709 -0)
(-1706.57 -136130 -0)
(-1595.69 -136526 -0)
(-87.0837 -118371 -0)
(-251.922 -118404 -0)
(-403.26 -118465 -0)
(-548.393 -118554 -0)
(-690.265 -118670 -0)
(-829.924 -118813 -0)
(-967.612 -118982 -0)
(-1103.23 -119177 -0)
(-1236.55 -119398 -0)
(-1367.29 -119644 -0)
(-1495.12 -119915 -0)
(-1619.72 -120211 -0)
(-1740.71 -120530 -0)
(-1857.72 -120872 -0)
(-1970.34 -121236 -0)
(-2078.13 -121623 -0)
(-2180.64 -122029 -0)
(-2277.37 -122456 -0)
(-2367.8 -122901 -0)
(-2451.38 -123364 -0)
(-2527.52 -123843 -0)
(-2595.67 -124336 -0)
(-2655.45 -124843 -0)
(-2706.46 -125362 -0)
(-2748.07 -125892 -0)
(-2779.66 -126429 -0)
(-2800.66 -126973 -0)
(-2810.58 -127522 -0)
(-2808.99 -128073 -0)
(-2795.59 -128624 -0)
(-2770.19 -129172 -0)
(-2732.68 -129716 -0)
(-2682.98 -130252 -0)
(-2621.02 -130779 -0)
(-2546.69 -131293 -0)
(-2459.82 -131793 -0)
(-2360.26 -132275 -0)
(-2247.94 -132736 -0)
(-2122.95 -133175 -0)
(-1985.56 -133587 -0)
(-103.419 -115183 -0)
(-299.188 -115216 -0)
(-479.032 -115278 -0)
(-651.693 -115369 -0)
(-820.629 -115487 -0)
(-987.035 -115632 -0)
(-1151.17 -115804 -0)
(-1312.91 -116002 -0)
(-1471.99 -116226 -0)
(-1628.07 -116477 -0)
(-1780.78 -116753 -0)
(-1929.72 -117054 -0)
(-2074.47 -117379 -0)
(-2214.57 -117728 -0)
(-2349.54 -118101 -0)
(-2478.86 -118496 -0)
(-2601.97 -118912 -0)
(-2718.3 -119349 -0)
(-2827.21 -119805 -0)
(-2928.04 -120280 -0)
(-3020.11 -120772 -0)
(-3102.81 -121280 -0)
(-3175.73 -121802 -0)
(-3238.28 -122337 -0)
(-3289.64 -122884 -0)
(-3329.07 -123439 -0)
(-3355.89 -124002 -0)
(-3369.48 -124570 -0)
(-3369.31 -125141 -0)
(-3354.98 -125713 -0)
(-3326.23 -126282 -0)
(-3282.87 -126847 -0)
(-3224.75 -127406 -0)
(-3151.77 -127954 -0)
(-3063.75 -128491 -0)
(-2960.47 -129012 -0)
(-2841.73 -129515 -0)
(-2707.46 -129997 -0)
(-2557.75 -130456 -0)
(-2392.91 -130888 -0)
(-120.158 -112161 -0)
(-347.494 -112195 -0)
(-556.258 -112259 -0)
(-756.804 -112351 -0)
(-953.175 -112471 -0)
(-1146.74 -112619 -0)
(-1337.8 -112793 -0)
(-1526.19 -112995 -0)
(-1711.62 -113224 -0)
(-1893.68 -113479 -0)
(-2071.96 -113761 -0)
(-2245.99 -114068 -0)
(-2415.29 -114400 -0)
(-2579.32 -114757 -0)
(-2737.51 -115139 -0)
(-2889.27 -115543 -0)
(-3033.94 -115970 -0)
(-3170.84 -116419 -0)
(-3299.22 -116889 -0)
(-3418.31 -117378 -0)
(-3527.34 -117885 -0)
(-3625.7 -118409 -0)
(-3712.84 -118949 -0)
(-3787.91 -119502 -0)
(-3849.96 -120068 -0)
(-3898.11 -120645 -0)
(-3931.54 -121229 -0)
(-3949.52 -121819 -0)
(-3951.4 -122413 -0)
(-3936.68 -123008 -0)
(-3905 -123602 -0)
(-3856.11 -124191 -0)
(-3789.78 -124774 -0)
(-3705.84 -125348 -0)
(-3604.04 -125909 -0)
(-3484.1 -126455 -0)
(-3345.76 -126982 -0)
(-3188.9 -127488 -0)
(-3013.63 -127970 -0)
(-2820.32 -128424 -0)
(-137.277 -109299 -0)
(-396.823 -109334 -0)
(-634.985 -109399 -0)
(-863.848 -109493 -0)
(-1088.1 -109615 -0)
(-1309.31 -109765 -0)
(-1527.83 -109943 -0)
(-1743.48 -110149 -0)
(-1955.91 -110382 -0)
(-2164.69 -110643 -0)
(-2369.32 -110930 -0)
(-2569.3 -111245 -0)
(-2764.05 -111585 -0)
(-2952.97 -111951 -0)
(-3135.41 -112342 -0)
(-3310.67 -112758 -0)
(-3478.01 -113197 -0)
(-3636.62 -113660 -0)
(-3785.64 -114144 -0)
(-3924.19 -114649 -0)
(-4051.39 -115173 -0)
(-4166.65 -115716 -0)
(-4269.22 -116276 -0)
(-4357.92 -116851 -0)
(-4431.69 -117439 -0)
(-4489.52 -118038 -0)
(-4530.45 -118647 -0)
(-4553.6 -119262 -0)
(-4558.22 -119882 -0)
(-4543.67 -120504 -0)
(-4509.54 -121125 -0)
(-4455.47 -121742 -0)
(-4381.16 -122353 -0)
(-4286.34 -122954 -0)
(-4170.7 -123544 -0)
(-4033.84 -124117 -0)
(-3875.44 -124673 -0)
(-3695.32 -125206 -0)
(-3493.57 -125714 -0)
(-3270.61 -126193 -0)
(-154.737 -106588 -0)
(-447.116 -106623 -0)
(-715.222 -106690 -0)
(-972.919 -106785 -0)
(-1225.57 -106910 -0)
(-1475 -107063 -0)
(-1721.6 -107245 -0)
(-1965.19 -107455 -0)
(-2205.39 -107693 -0)
(-2441.7 -107959 -0)
(-2673.6 -108254 -0)
(-2900.48 -108576 -0)
(-3121.73 -108925 -0)
(-3336.64 -109301 -0)
(-3544.49 -109703 -0)
(-3744.47 -110132 -0)
(-3935.74 -110585 -0)
(-4117.37 -111062 -0)
(-4288.38 -111563 -0)
(-4447.74 -112086 -0)
(-4594.55 -112630 -0)
(-4728.12 -113194 -0)
(-4847.4 -113776 -0)
(-4950.98 -114375 -0)
(-5037.64 -114988 -0)
(-5106.23 -115614 -0)
(-5155.61 -116250 -0)
(-5184.79 -116893 -0)
(-5192.89 -117542 -0)
(-5179.15 -118194 -0)
(-5143.07 -118845 -0)
(-5084.21 -119493 -0)
(-5002.18 -120136 -0)
(-4896.61 -120769 -0)
(-4767.07 -121389 -0)
(-4613.06 -121995 -0)
(-4434.13 -122581 -0)
(-4230.04 -123145 -0)
(-4000.82 -123683 -0)
(-3746.94 -124190 -0)
(-172.487 -104019 -0)
(-498.296 -104055 -0)
(-796.957 -104122 -0)
(-1084.1 -104220 -0)
(-1365.78 -104347 -0)
(-1644.09 -104503 -0)
(-1919.48 -104689 -0)
(-2191.79 -104903 -0)
(-2460.61 -105147 -0)
(-2725.39 -105420 -0)
(-2985.55 -105722 -0)
(-3240.43 -106053 -0)
(-3489.33 -106412 -0)
(-3731.48 -106799 -0)
(-3966.04 -107214 -0)
(-4192.13 -107656 -0)
(-4408.76 -108124 -0)
(-4614.9 -108619 -0)
(-4809.4 -109138 -0)
(-4991.1 -109681 -0)
(-5159.16 -110247 -0)
(-5312.63 -110834 -0)
(-5450.05 -111441 -0)
(-5569.88 -112066 -0)
(-5670.73 -112708 -0)
(-5751.26 -113363 -0)
(-5810.18 -114029 -0)
(-5846.34 -114705 -0)
(-5858.73 -115386 -0)
(-5846.5 -116071 -0)
(-5809.03 -116756 -0)
(-5745.82 -117439 -0)
(-5656.38 -118116 -0)
(-5540.23 -118784 -0)
(-5396.79 -119441 -0)
(-5225.43 -120081 -0)
(-5025.54 -120703 -0)
(-4796.75 -121301 -0)
(-4539.02 -121872 -0)
(-4252.84 -122412 -0)
(-190.473 -101584 -0)
(-550.278 -101620 -0)
(-880.168 -101688 -0)
(-1197.45 -101788 -0)
(-1508.9 -101917 -0)
(-1816.84 -102077 -0)
(-2121.84 -102267 -0)
(-2423.75 -102487 -0)
(-2722.14 -102736 -0)
(-3016.42 -103016 -0)
(-3305.96 -103326 -0)
(-3590.05 -103667 -0)
(-3867.89 -104036 -0)
(-4138.66 -104436 -0)
(-4401.4 -104864 -0)
(-4655.12 -105321 -0)
(-4898.71 -105807 -0)
(-5131 -106320 -0)
(-5350.7 -106859 -0)
(-5556.54 -107425 -0)
(-5747.61 -108015 -0)
(-5922.66 -108628 -0)
(-6079.85 -109263 -0)
(-6217.48 -109917 -0)
(-6333.98 -110590 -0)
(-6427.8 -111277 -0)
(-6497.47 -111978 -0)
(-6541.68 -112688 -0)
(-6559.29 -113406 -0)
(-6549.34 -114128 -0)
(-6511.11 -114851 -0)
(-6444.02 -115572 -0)
(-6347.55 -116288 -0)
(-6221.06 -116995 -0)
(-6063.81 -117691 -0)
(-5874.98 -118371 -0)
(-5653.75 -119032 -0)
(-5399.53 -119669 -0)
(-5112.22 -120278 -0)
(-4792.26 -120855 -0)
(-208.647 -99272.8 -0)
(-602.98 -99309.3 -0)
(-964.833 -99378.8 -0)
(-1313.06 -99480 -0)
(-1655.08 -99612.4 -0)
(-1993.51 -99775.6 -0)
(-2329.04 -99969.9 -0)
(-2661.52 -100195 -0)
(-2990.53 -100452 -0)
(-3315.46 -100739 -0)
(-3635.61 -101058 -0)
(-3950.23 -101409 -0)
(-4258.44 -101790 -0)
(-4559.33 -102203 -0)
(-4851.85 -102646 -0)
(-5134.88 -103120 -0)
(-5407.2 -103624 -0)
(-5667.47 -104157 -0)
(-5914.23 -104719 -0)
(-6146.24 -105308 -0)
(-6362.32 -105925 -0)
(-6560.77 -106566 -0)
(-6739.55 -107231 -0)
(-6896.73 -107918 -0)
(-7030.53 -108625 -0)
(-7139.18 -109348 -0)
(-7220.99 -110086 -0)
(-7274.47 -110835 -0)
(-7298.32 -111593 -0)
(-7291.51 -112355 -0)
(-7253.24 -113120 -0)
(-7182.88 -113884 -0)
(-7079.83 -114643 -0)
(-6943.35 -115394 -0)
(-6772.5 -116134 -0)
(-6566.17 -116858 -0)
(-6323.27 -117563 -0)
(-6042.95 -118244 -0)
(-5724.92 -118896 -0)
(-5369.6 -119514 -0)
(-226.964 -97078 -0)
(-656.327 -97114.7 -0)
(-1050.93 -97185.3 -0)
(-1430.97 -97288.3 -0)
(-1804.47 -97423.4 -0)
(-2174.36 -97590.5 -0)
(-2541.4 -97789.5 -0)
(-2905.54 -98020.7 -0)
(-3266.32 -98284.2 -0)
(-3623.13 -98580.1 -0)
(-3975.23 -98908.7 -0)
(-4321.81 -99270 -0)
(-4661.93 -99664 -0)
(-4994.58 -100091 -0)
(-5318.63 -100550 -0)
(-5632.82 -101042 -0)
(-5935.8 -101565 -0)
(-6226.06 -102121 -0)
(-6502 -102706 -0)
(-6762.34 -103322 -0)
(-7005.55 -103967 -0)
(-7229.48 -104639 -0)
(-7431.9 -105338 -0)
(-7610.64 -106060 -0)
(-7763.63 -106803 -0)
(-7888.85 -107566 -0)
(-7984.39 -108344 -0)
(-8048.54 -109136 -0)
(-8079.85 -109938 -0)
(-8077.2 -110746 -0)
(-8039.75 -111557 -0)
(-7966.85 -112368 -0)
(-7857.84 -113175 -0)
(-7711.85 -113975 -0)
(-7527.71 -114764 -0)
(-7303.97 -115537 -0)
(-7039.16 -116292 -0)
(-6732.07 -117021 -0)
(-6382.18 -117721 -0)
(-5989.81 -118386 -0)
(-245.387 -94990.7 -0)
(-710.257 -95027.6 -0)
(-1138.43 -95099.1 -0)
(-1551.22 -95204 -0)
(-1957.21 -95342 -0)
(-2359.58 -95512.9 -0)
(-2759.24 -95717 -0)
(-3156.18 -95954.3 -0)
(-3549.98 -96225.2 -0)
(-3939.99 -96529.8 -0)
(-4325.48 -96868.5 -0)
(-4705.55 -97241.5 -0)
(-5079.24 -97648.8 -0)
(-5445.42 -98090.6 -0)
(-5802.87 -98566.9 -0)
(-6150.21 -99077.6 -0)
(-6485.93 -99622.3 -0)
(-6808.36 -100201 -0)
(-7115.87 -100812 -0)
(-7406.92 -101456 -0)
(-7679.55 -102132 -0)
(-7931.29 -102837 -0)
(-8159.67 -103571 -0)
(-8362.23 -104331 -0)
(-8536.58 -105115 -0)
(-8680.41 -105920 -0)
(-8791.53 -106743 -0)
(-8868 -107582 -0)
(-8908.22 -108432 -0)
(-8910.98 -109290 -0)
(-8875.41 -110153 -0)
(-8800.88 -111016 -0)
(-8686.69 -111876 -0)
(-8531.84 -112730 -0)
(-8334.88 -113574 -0)
(-8093.95 -114403 -0)
(-7807.09 -115212 -0)
(-7472.63 -115997 -0)
(-7089.71 -116751 -0)
(-6658.5 -117469 -0)
(-263.887 -93002.5 -0)
(-764.718 -93039.5 -0)
(-1227.32 -93111.9 -0)
(-1673.86 -93218.6 -0)
(-2113.39 -93359.5 -0)
(-2549.33 -93534.5 -0)
(-2982.77 -93743.7 -0)
(-3413.74 -93987.4 -0)
(-3841.86 -94265.9 -0)
(-4266.5 -94579.7 -0)
(-4686.88 -94928.9 -0)
(-5102.1 -95314 -0)
(-5511.1 -95735.3 -0)
(-5912.7 -96192.9 -0)
(-6305.56 -96687 -0)
(-6688.19 -97217.5 -0)
(-7058.92 -97784.4 -0)
(-7415.92 -98387.5 -0)
(-7757.52 -99026.2 -0)
(-8081.87 -99700.1 -0)
(-8386.47 -100408 -0)
(-8668.64 -101149 -0)
(-8925.59 -101921 -0)
(-9154.54 -102722 -0)
(-9352.76 -103549 -0)
(-9517.57 -104401 -0)
(-9646.47 -105273 -0)
(-9737.25 -106163 -0)
(-9788.14 -107066 -0)
(-9797.83 -107979 -0)
(-9765.48 -108898 -0)
(-9690.47 -109819 -0)
(-9572.11 -110739 -0)
(-9409.26 -111653 -0)
(-9200.17 -112558 -0)
(-8942.46 -113449 -0)
(-8633.54 -114321 -0)
(-8271.16 -115168 -0)
(-7854 -115983 -0)
(-7382.25 -116761 -0)
(-282.443 -91105 -0)
(-819.667 -91142.1 -0)
(-1317.57 -91215.3 -0)
(-1798.88 -91324 -0)
(-2273.04 -91467.7 -0)
(-2743.72 -91646.8 -0)
(-3212.14 -91861.2 -0)
(-3678.43 -92111.4 -0)
(-4142.25 -92397.8 -0)
(-4602.99 -92720.8 -0)
(-5059.86 -93080.9 -0)
(-5511.93 -93478.6 -0)
(-5958.09 -93914.2 -0)
(-6397.09 -94388.1 -0)
(-6827.5 -94900.6 -0)
(-7247.7 -95451.8 -0)
(-7655.87 -96041.8 -0)
(-8050.08 -96670.5 -0)
(-8428.51 -97337.8 -0)
(-8788.88 -98043.2 -0)
(-9128.32 -98785.5 -0)
(-9443.84 -99563.6 -0)
(-9732.34 -100376 -0)
(-9990.64 -101221 -0)
(-10215.6 -102095 -0)
(-10404.2 -102996 -0)
(-10553.5 -103922 -0)
(-10661 -104867 -0)
(-10724.7 -105828 -0)
(-10743.2 -106802 -0)
(-10715.7 -107784 -0)
(-10641.8 -108769 -0)
(-10520.6 -109755 -0)
(-10350.9 -110737 -0)
(-10130.6 -111710 -0)
(-9856.74 -112671 -0)
(-9525.91 -113613 -0)
(-9135.14 -114530 -0)
(-8682.63 -115415 -0)
(-8168.34 -116260 -0)
(-301.044 -89290.2 -0)
(-875.076 -89327.4 -0)
(-1409.14 -89401.4 -0)
(-1926.27 -89511.8 -0)
(-2436.18 -89658.5 -0)
(-2942.77 -89841.5 -0)
(-3447.41 -90061.2 -0)
(-3950.34 -90317.9 -0)
(-4451.27 -90612.2 -0)
(-4949.63 -90944.6 -0)
(-5444.64 -91315.7 -0)
(-5935.34 -91726 -0)
(-6420.6 -92176.2 -0)
(-6899.09 -92666.7 -0)
(-7369.29 -93198 -0)
(-7829.47 -93770.5 -0)
(-8277.65 -94384.3 -0)
(-8711.92 -95039.6 -0)
(-9130.15 -95736.5 -0)
(-9529.54 -96474.5 -0)
(-9906.96 -97252.8 -0)
(-10259.1 -98070.3 -0)
(-10582.5 -98925.5 -0)
(-10873.5 -99816.5 -0)
(-11128.6 -100741 -0)
(-11344.2 -101696 -0)
(-11517 -102678 -0)
(-11644.1 -103684 -0)
(-11723.2 -104709 -0)
(-11753 -105749 -0)
(-11732.7 -106800 -0)
(-11661.7 -107857 -0)
(-11539.4 -108916 -0)
(-11364.5 -109973 -0)
(-11134.3 -111024 -0)
(-10845.2 -112063 -0)
(-10492.7 -113085 -0)
(-10073.1 -114081 -0)
(-9584.16 -115045 -0)
(-9025.07 -115967 -0)
(-319.687 -87550.1 -0)
(-930.924 -87587.4 -0)
(-1501.98 -87662.2 -0)
(-2055.95 -87774.3 -0)
(-2602.73 -87923.8 -0)
(-3146.42 -88110.7 -0)
(-3688.54 -88335.5 -0)
(-4229.44 -88598.6 -0)
(-4768.92 -88900.7 -0)
(-5306.46 -89242.4 -0)
(-5841.28 -89624.4 -0)
(-6372.45 -90047.4 -0)
(-6898.79 -90512.1 -0)
(-7418.93 -91019.4 -0)
(-7931.28 -91569.7 -0)
(-8433.98 -92163.6 -0)
(-8924.99 -92801.6 -0)
(-9402.31 -93484.2 -0)
(-9863.44 -94211.6 -0)
(-10305.2 -94983.3 -0)
(-10724.1 -95798.9 -0)
(-11116.5 -96657.4 -0)
(-11478.5 -97557.5 -0)
(-11806.1 -98497.6 -0)
(-12095.2 -99475.2 -0)
(-12341.6 -100488 -0)
(-12541.5 -101531 -0)
(-12691.7 -102602 -0)
(-12789.7 -103697 -0)
(-12833.8 -104809 -0)
(-12823.4 -105936 -0)
(-12758 -107073 -0)
(-12637 -108214 -0)
(-12459 -109356 -0)
(-12220.6 -110494 -0)
(-11917.4 -111622 -0)
(-11544 -112734 -0)
(-11095.3 -113820 -0)
(-10568.4 -114874 -0)
(-9961.64 -115883 -0)
(-338.37 -85877.1 -0)
(-987.189 -85914.5 -0)
(-1596.04 -85990 -0)
(-2187.82 -86103.7 -0)
(-2772.56 -86255.8 -0)
(-3354.5 -86446.5 -0)
(-3935.34 -86676.2 -0)
(-4515.55 -86945.5 -0)
(-5095.02 -87255.1 -0)
(-5673.28 -87605.8 -0)
(-6249.63 -87998.4 -0)
(-6823.13 -88433.8 -0)
(-7392.59 -88913 -0)
(-7956.62 -89436.7 -0)
(-8513.54 -90005.9 -0)
(-9061.41 -90621.3 -0)
(-9598.28 -91283.7 -0)
(-10121.9 -91993.9 -0)
(-10629.2 -92752.2 -0)
(-11116.8 -93558.4 -0)
(-11581.1 -94412.3 -0)
(-12017.8 -95313.3 -0)
(-12422.7 -96260.3 -0)
(-12791.2 -97251.8 -0)
(-13118.7 -98285.5 -0)
(-13400.3 -99358.8 -0)
(-13631.8 -100468 -0)
(-13809.4 -101610 -0)
(-13930.3 -102779 -0)
(-13992.6 -103972 -0)
(-13995.7 -105182 -0)
(-13939.3 -106406 -0)
(-13822.9 -107640 -0)
(-13644.5 -108877 -0)
(-13400.4 -110114 -0)
(-13084.9 -111343 -0)
(-12691.2 -112557 -0)
(-12213.2 -113747 -0)
(-11646.7 -114902 -0)
(-10988.9 -116011 -0)
(-357.094 -84263.6 -0)
(-1043.84 -84301.1 -0)
(-1691.23 -84377.3 -0)
(-2321.75 -84492.5 -0)
(-2945.46 -84647 -0)
(-3566.78 -84841.1 -0)
(-4187.53 -85075.4 -0)
(-4808.34 -85350.5 -0)
(-5429.21 -85667.2 -0)
(-6049.76 -86026.4 -0)
(-6669.33 -86429.2 -0)
(-7287.03 -86876.6 -0)
(-7901.68 -87369.7 -0)
(-8511.87 -87909.5 -0)
(-9115.89 -88497.2 -0)
(-9711.8 -89133.8 -0)
(-10297.6 -89820.6 -0)
(-10870.8 -90558.3 -0)
(-11427.9 -91347.6 -0)
(-11965.3 -92188.8 -0)
(-12479 -93081.8 -0)
(-12964.5 -94026.4 -0)
(-13417 -95021.7 -0)
(-13831.3 -96066.6 -0)
(-14202.2 -97159 -0)
(-14524.2 -98296.5 -0)
(-14792.5 -99475.8 -0)
(-15002.7 -100693 -0)
(-15151.5 -101944 -0)
(-15236.9 -103223 -0)
(-15258.3 -104526 -0)
(-15215.5 -105848 -0)
(-15107.8 -107184 -0)
(-14932.9 -108529 -0)
(-14686.3 -109878 -0)
(-14360.8 -111222 -0)
(-13948 -112554 -0)
(-13440.5 -113861 -0)
(-12832.5 -115134 -0)
(-12119.4 -116356 -0)
(-375.856 -82702.5 -0)
(-1100.85 -82740.1 -0)
(-1787.43 -82816.9 -0)
(-2457.52 -82933.4 -0)
(-3121.16 -83090 -0)
(-3782.89 -83287.2 -0)
(-4444.7 -83525.6 -0)
(-5107.35 -83806 -0)
(-5770.99 -84129.2 -0)
(-6435.33 -84496.4 -0)
(-7099.8 -84908.7 -0)
(-7763.56 -85367.3 -0)
(-8425.48 -85873.6 -0)
(-9084.14 -86428.8 -0)
(-9737.83 -87034.3 -0)
(-10384.8 -87691.6 -0)
(-11022.8 -88402.2 -0)
(-11648.9 -89167.2 -0)
(-12259.6 -89987.3 -0)
(-12851 -90863.4 -0)
(-13418.7 -91795.8 -0)
(-13957.7 -92784.5 -0)
(-14462.9 -93829.3 -0)
(-14928.6 -94929.2 -0)
(-15348.6 -96082.6 -0)
(-15717.1 -97287.4 -0)
(-16028.2 -98540.5 -0)
(-16277.2 -99838.3 -0)
(-16460.2 -101177 -0)
(-16575 -102550 -0)
(-16620.8 -103955 -0)
(-16597.5 -105386 -0)
(-16504.1 -106837 -0)
(-16338 -108304 -0)
(-16093.1 -109780 -0)
(-15760.8 -111256 -0)
(-15330.6 -112722 -0)
(-14793.4 -114166 -0)
(-14141 -115572 -0)
(-13367.7 -116924 -0)
(-394.652 -81186.9 -0)
(-1158.16 -81224.5 -0)
(-1884.49 -81301.7 -0)
(-2594.89 -81419.3 -0)
(-3299.3 -81577.7 -0)
(-4002.39 -81777.6 -0)
(-4706.29 -82019.6 -0)
(-5411.96 -82304.5 -0)
(-6119.66 -82633.6 -0)
(-6829.24 -83007.9 -0)
(-7540.24 -83428.8 -0)
(-8251.89 -83897.7 -0)
(-8963.13 -84416.2 -0)
(-9672.58 -84985.8 -0)
(-10378.7 -85608.2 -0)
(-11079.7 -86285.5 -0)
(-11773.2 -87019 -0)
(-12455.9 -87810.4 -0)
(-13124.1 -88660.7 -0)
(-13773.8 -89571.2 -0)
(-14400.2 -90542.7 -0)
(-14998.1 -91575.7 -0)
(-15561.7 -92670.4 -0)
(-16084.6 -93826.4 -0)
(-16560.4 -95042.5 -0)
(-16982.1 -96317.2 -0)
(-17343.4 -97647.8 -0)
(-17638.7 -99031.1 -0)
(-17863.5 -100463 -0)
(-18015.5 -101940 -0)
(-18093.6 -103456 -0)
(-18097.5 -105007 -0)
(-18026 -106588 -0)
(-17875.4 -108192 -0)
(-17638.2 -109813 -0)
(-17303.3 -111441 -0)
(-16858.1 -113063 -0)
(-16290.7 -114663 -0)
(-15590.7 -116225 -0)
(-14751 -117726 -0)
(-413.468 -79710 -0)
(-1215.68 -79747.7 -0)
(-1982.23 -79825.2 -0)
(-2733.54 -79943.6 -0)
(-3479.45 -80103.4 -0)
(-4224.71 -80305.4 -0)
(-4971.66 -80550.3 -0)
(-5721.4 -80839.1 -0)
(-6474.36 -81173.1 -0)
(-7230.55 -81553.5 -0)
(-7989.63 -81982 -0)
(-8750.96 -82460 -0)
(-9513.54 -82989.5 -0)
(-10276.2 -83572.3 -0)
(-11037.5 -84210.5 -0)
(-11795.6 -84906.4 -0)
(-12547.7 -85661.6 -0)
(-13290.6 -86478.1 -0)
(-14020.5 -87357.4 -0)
(-14733 -88301.3 -0)
(-15423.2 -89311 -0)
(-16085.5 -90387.7 -0)
(-16713.6 -91532.1 -0)
(-17300.6 -92744.4 -0)
(-17839.4 -94024.3 -0)
(-18322.3 -95370.8 -0)
(-18742.2 -96782 -0)
(-19092.6 -98255.5 -0)
(-19368.8 -99787.8 -0)
(-19567.7 -101375 -0)
(-19688.1 -103013 -0)
(-19729.3 -104698 -0)
(-19689.5 -106424 -0)
(-19563.5 -108185 -0)
(-19341.7 -109972 -0)
(-19010.1 -111774 -0)
(-18553 -113576 -0)
(-17955.3 -115359 -0)
(-17203.4 -117099 -0)
(-16289.2 -118773 -0)
(-432.284 -78265.7 -0)
(-1273.33 -78303.3 -0)
(-2080.42 -78381 -0)
(-2873.11 -78499.9 -0)
(-3661.09 -78660.6 -0)
(-4449.23 -78864.1 -0)
(-5240.02 -79111.1 -0)
(-6034.77 -79402.9 -0)
(-6834.08 -79740.7 -0)
(-7638.14 -80126.2 -0)
(-8446.76 -80560.9 -0)
(-9259.44 -81046.7 -0)
(-10075.3 -81585.7 -0)
(-10893.6 -82180.3 -0)
(-11712.8 -82833 -0)
(-12530.8 -83545.7 -0)
(-13344.9 -84320.9 -0)
(-14151.7 -85160.7 -0)
(-14947.3 -86067.3 -0)
(-15727.4 -87042.7 -0)
(-16486.6 -88089.1 -0)
(-17219.1 -89208 -0)
(-17918.3 -90401 -0)
(-18576.9 -91669.1 -0)
(-19186.8 -93013 -0)
(-19739.9 -94432.5 -0)
(-20228.1 -95926.8 -0)
(-20644.4 -97494.4 -0)
(-20983.3 -99132.9 -0)
(-21241.2 -100840 -0)
(-21416.5 -102611 -0)
(-21508 -104443 -0)
(-21512.8 -106332 -0)
(-21423.6 -108270 -0)
(-21227.7 -110249 -0)
(-20907.1 -112253 -0)
(-20442.4 -114264 -0)
(-19814 -116258 -0)
(-19004.8 -118208 -0)
(-18006.2 -120081 -0)
(-451.069 -76848 -0)
(-1330.98 -76885.5 -0)
(-2178.8 -76963.1 -0)
(-3013.17 -77082.1 -0)
(-3843.65 -77243.3 -0)
(-4675.19 -77447.5 -0)
(-5510.49 -77695.8 -0)
(-6351.03 -77989.5 -0)
(-7197.64 -78330.1 -0)
(-8050.7 -78719.2 -0)
(-8910.2 -79158.8 -0)
(-9775.82 -79650.8 -0)
(-10647.1 -80197.9 -0)
(-11523.4 -80802.7 -0)
(-12402.9 -81467.6 -0)
(-13283.6 -82195.3 -0)
(-14162.7 -82988.1 -0)
(-15037 -83848.9 -0)
(-15902.5 -84780.2 -0)
(-16754.8 -85784.8 -0)
(-17588.4 -86865.1 -0)
(-18397.4 -88023.9 -0)
(-19174.7 -89263.5 -0)
(-19912.7 -90585.9 -0)
(-20602.8 -91992.9 -0)
(-21236.1 -93485.5 -0)
(-21804.1 -95064.4 -0)
(-22298.8 -96729.3 -0)
(-22714 -98479.4 -0)
(-23045.7 -100313 -0)
(-23291.9 -102229 -0)
(-23450.4 -104225 -0)
(-23516.5 -106296 -0)
(-23480.1 -108436 -0)
(-23324 -110633 -0)
(-23025.3 -112872 -0)
(-22558.8 -115128 -0)
(-21899.2 -117370 -0)
(-21026 -119564 -0)
(-19930.2 -121670 -0)
(-469.782 -75451.4 -0)
(-1388.47 -75488.7 -0)
(-2277.04 -75566 -0)
(-3153.25 -75684.7 -0)
(-4026.48 -75845.7 -0)
(-4901.79 -76049.9 -0)
(-5782.07 -76298.6 -0)
(-6669.05 -76593.2 -0)
(-7563.76 -76935.2 -0)
(-8466.79 -77326.5 -0)
(-9378.37 -77769.3 -0)
(-10298.6 -78266 -0)
(-11227.2 -78819.4 -0)
(-12163.3 -79432.2 -0)
(-13105.4 -80107.2 -0)
(-14051.3 -80847.1 -0)
(-14998.5 -81654.9 -0)
(-15943.7 -82533.6 -0)
(-16883.2 -83486.4 -0)
(-17812.3 -84516.7 -0)
(-18725.8 -85627.7 -0)
(-19617.5 -86823 -0)
(-20480.3 -88105.9 -0)
(-21306.2 -89479.8 -0)
(-22086.4 -90947.6 -0)
(-22811.4 -92512.2 -0)
(-23471.9 -94175.7 -0)
(-24059.5 -95939.9 -0)
(-24567.4 -97806 -0)
(-24991.2 -99774.9 -0)
(-25328 -101847 -0)
(-25574.6 -104022 -0)
(-25723.7 -106297 -0)
(-25761.1 -108665 -0)
(-25663.6 -111115 -0)
(-25401.3 -113626 -0)
(-24941.1 -116169 -0)
(-24250.4 -118704 -0)
(-23304.6 -121186 -0)
(-22095.2 -123565 -0)
(-488.372 -74070.8 -0)
(-1445.62 -74107.8 -0)
(-2374.82 -74184.6 -0)
(-3292.82 -74302.5 -0)
(-4208.86 -74462.6 -0)
(-5128.13 -74666.1 -0)
(-6053.72 -74914.1 -0)
(-6987.58 -75208.3 -0)
(-7931.01 -75550.4 -0)
(-8884.84 -75942.4 -0)
(-9849.65 -76386.8 -0)
(-10825.9 -76886.4 -0)
(-11813.4 -77444 -0)
(-12811.2 -78062.5 -0)
(-13817.7 -78744.7 -0)
(-14831.2 -79493.8 -0)
(-15849.2 -80313.1 -0)
(-16868.5 -81206.1 -0)
(-17885.6 -82176.4 -0)
(-18896.1 -83228.1 -0)
(-19894.8 -84365.4 -0)
(-20875.6 -85592.6 -0)
(-21831.5 -86914.4 -0)
(-22754.4 -88335.4 -0)
(-23635.2 -89860.4 -0)
(-24464.2 -91494 -0)
(-25231.8 -93240.5 -0)
(-25929 -95104.2 -0)
(-26548.9 -97089.2 -0)
(-27086.7 -99199.3 -0)
(-27538.7 -101438 -0)
(-27900 -103809 -0)
(-28160.2 -106310 -0)
(-28299 -108939 -0)
(-28285.1 -111680 -0)
(-28079.1 -114509 -0)
(-27636.8 -117390 -0)
(-26915.6 -120272 -0)
(-25887 -123095 -0)
(-24542.7 -125798 -0)
(-506.775 -72701.6 -0)
(-1502.23 -72738.2 -0)
(-2471.73 -72814.1 -0)
(-3431.31 -72930.8 -0)
(-4390.05 -73089.4 -0)
(-5353.27 -73291.1 -0)
(-6324.28 -73537.5 -0)
(-7305.3 -73830 -0)
(-8297.9 -74170.7 -0)
(-9303.2 -74561.8 -0)
(-10322.3 -75006.2 -0)
(-11355.8 -75506.7 -0)
(-12403.3 -76066.1 -0)
(-13464 -76687.4 -0)
(-14536.8 -77373.7 -0)
(-15619.7 -78128.5 -0)
(-16710.8 -78955.3 -0)
(-17807.1 -79858.2 -0)
(-18905.2 -80841.2 -0)
(-20001.3 -81909.1 -0)
(-21090.3 -83067 -0)
(-22166.5 -84320.4 -0)
(-23223.1 -85675.1 -0)
(-24252.2 -87137.4 -0)
(-25244.9 -88713.9 -0)
(-26191.5 -90411.4 -0)
(-27082.1 -92237.1 -0)
(-27908.1 -94198.3 -0)
(-28662.4 -96302.6 -0)
(-29340.1 -98558.1 -0)
(-29937.3 -100973 -0)
(-30446.9 -103555 -0)
(-30854 -106308 -0)
(-31130.5 -109230 -0)
(-31234.1 -112306 -0)
(-31111.7 -115508 -0)
(-30703.6 -118789 -0)
(-29954.9 -122085 -0)
(-28830.7 -125318 -0)
(-27323.8 -128407 -0)
(-524.92 -71339.7 -0)
(-1558.05 -71375.6 -0)
(-2567.38 -71450.3 -0)
(-3568.11 -71565.2 -0)
(-4569.24 -71721.6 -0)
(-5576.22 -71920.8 -0)
(-6592.58 -72164.3 -0)
(-7620.84 -72453.9 -0)
(-8662.82 -72791.7 -0)
(-9720.3 -73180.4 -0)
(-10794.5 -73622.9 -0)
(-11885.8 -74121.9 -0)
(-12994.1 -74680.4 -0)
(-14118.8 -75301.4 -0)
(-15258.9 -75988.4 -0)
(-16412.8 -76744.8 -0)
(-17578.8 -77574.6 -0)
(-18754.4 -78482.1 -0)
(-19936.6 -79472.2 -0)
(-21121.9 -80550.2 -0)
(-22306 -81722 -0)
(-23483.6 -82994.4 -0)
(-24648.5 -84374.4 -0)
(-25793.2 -85870.2 -0)
(-26909.2 -87490.4 -0)
(-27987.5 -89244.4 -0)
(-29018.6 -91142.6 -0)
(-29994.5 -93195.9 -0)
(-30908.8 -95416.8 -0)
(-31757.3 -97818.9 -0)
(-32535.7 -100417 -0)
(-33235.1 -103224 -0)
(-33834.7 -106252 -0)
(-34296.5 -109503 -0)
(-34563.4 -112963 -0)
(-34562.8 -116603 -0)
(-34213.5 -120361 -0)
(-33444 -124156 -0)
(-32209.6 -127887 -0)
(-30503.4 -131445 -0)
(-542.729 -69981.2 -0)
(-1612.85 -70016.4 -0)
(-2661.31 -70089.5 -0)
(-3702.61 -70202.1 -0)
(-4745.62 -70355.6 -0)
(-5795.95 -70551.3 -0)
(-6857.4 -70790.8 -0)
(-7932.74 -71076.2 -0)
(-9024.39 -71409.7 -0)
(-10134.4 -71794.4 -0)
(-11263.9 -72232.8 -0)
(-12413.3 -72727.8 -0)
(-13582.8 -73282.4 -0)
(-14772 -73899.8 -0)
(-15980.1 -74583.3 -0)
(-17205.9 -75336.8 -0)
(-18448.1 -76164.4 -0)
(-19704.7 -77070.9 -0)
(-20973.3 -78061.6 -0)
(-22251.1 -79142.5 -0)
(-23534.4 -80320.5 -0)
(-24818.8 -81603.2 -0)
(-26098.9 -82999.4 -0)
(-27368.2 -84518.8 -0)
(-28619.2 -86172.4 -0)
(-29843.6 -87972.4 -0)
(-31033.6 -89932.8 -0)
(-32182.4 -92069.2 -0)
(-33285.4 -94399.5 -0)
(-34340 -96944.4 -0)
(-35342.7 -99726.8 -0)
(-36282.6 -102770 -0)
(-37132.5 -106095 -0)
(-37841.6 -109711 -0)
(-38333.8 -113611 -0)
(-38509 -117761 -0)
(-38256.9 -122090 -0)
(-37481 -126495 -0)
(-36120.4 -130841 -0)
(-34165.5 -134979 -0)
(-560.117 -68623.1 -0)
(-1666.36 -68657.4 -0)
(-2753.09 -68728.6 -0)
(-3834.15 -68838.3 -0)
(-4918.34 -68988 -0)
(-6011.45 -69179.3 -0)
(-7117.51 -69413.8 -0)
(-8239.74 -69693.6 -0)
(-9381.02 -70021.5 -0)
(-10543.4 -70400.2 -0)
(-11728 -70832.3 -0)
(-12935.4 -71320.6 -0)
(-14166 -71868.1 -0)
(-15419.7 -72478 -0)
(-16695.9 -73153.8 -0)
(-17993.9 -73899.4 -0)
(-19312.9 -74719.2 -0)
(-20651.6 -75618.3 -0)
(-22008.2 -76602.4 -0)
(-23380.8 -77678.2 -0)
(-24766.7 -78853.4 -0)
(-26162.5 -80136.5 -0)
(-27564 -81537.8 -0)
(-28966.2 -83068.8 -0)
(-30362.9 -84742.8 -0)
(-31747.9 -86575.1 -0)
(-33115.4 -88583.4 -0)
(-34461.2 -90788.6 -0)
(-35784 -93215.3 -0)
(-37084.6 -95892.7 -0)
(-38361.4 -98854.3 -0)
(-39602.8 -102136 -0)
(-40775.1 -105772 -0)
(-41812.6 -109787 -0)
(-42613.6 -114184 -0)
(-43042.3 -118930 -0)
(-42948 -123947 -0)
(-42195.2 -129107 -0)
(-40693.1 -134228 -0)
(-38423.2 -139096 -0)
(-576.996 -67262.6 -0)
(-1718.31 -67295.7 -0)
(-2842.26 -67364.6 -0)
(-3962.1 -67471 -0)
(-5086.58 -67616.3 -0)
(-6221.66 -67802.1 -0)
(-7371.69 -68030.4 -0)
(-8540.48 -68303.5 -0)
(-9731.01 -68624.2 -0)
(-10945.2 -68994.9 -0)
(-12184.3 -69418.3 -0)
(-13449.1 -69897 -0)
(-14740.2 -70434 -0)
(-16057.7 -71032.4 -0)
(-17401.4 -71695.8 -0)
(-18771.4 -72428.2 -0)
(-20167 -73234.2 -0)
(-21587.9 -74119 -0)
(-23033.3 -75088.8 -0)
(-24502 -76150.7 -0)
(-25992.7 -77312.9 -0)
(-27503.3 -78585.3 -0)
(-29031.3 -79979 -0)
(-30573.2 -81507.4 -0)
(-32125.4 -83185.9 -0)
(-33684.2 -85032.9 -0)
(-35247.2 -87070.2 -0)
(-36814.3 -89324.1 -0)
(-38389.5 -91826.8 -0)
(-39979 -94617.4 -0)
(-41586.2 -97742.4 -0)
(-43200.7 -101254 -0)
(-44783.3 -105206 -0)
(-46253.2 -109644 -0)
(-47476.8 -114591 -0)
(-48272.3 -120026 -0)
(-48433.4 -125873 -0)
(-47761.7 -131979 -0)
(-46110.1 -138100 -0)
(-43434 -143921 -0)