/*--------------------------------*- C++ -*----------------------------------*\
  =========                 |
  \\      /  F ield         | OpenFOAM: The Open Source CFD Toolbox
   \\    /   O peration     | Website:  https://openfoam.org
    \\  /    A nd           | Version:  6
     \\/     M anipulation  |
\*---------------------------------------------------------------------------*/
FoamFile
{
    version     2.0;
    format      ascii;
    class       volVectorField;
    location    "10";
    object      force;
}
// * * * * * * * * * * * * * * * * * * * * * * * * * * * * * * * * * * * * * //

dimensions      [0 1 -2 0 0 0 0];

internalField   nonuniform List<vector> 
8800
(
(-3.20495e-06 -0.0478111 -0)
(-8.74196e-06 -0.0479421 -0)
(-1.31956e-05 -0.0480129 -0)
(-1.7418e-05 -0.0480611 -0)
(-2.16e-05 -0.0481006 -0)
(-2.57746e-05 -0.0481393 -0)
(-2.99289e-05 -0.0481805 -0)
(-3.40396e-05 -0.0482267 -0)
(-3.8083e-05 -0.0482779 -0)
(-4.20423e-05 -0.0483341 -0)
(-4.5904e-05 -0.0483952 -0)
(-4.96554e-05 -0.048461 -0)
(-5.32844e-05 -0.0485313 -0)
(-5.6779e-05 -0.0486059 -0)
(-6.01266e-05 -0.0486847 -0)
(-6.33141e-05 -0.0487675 -0)
(-6.63276e-05 -0.0488542 -0)
(-6.91521e-05 -0.0489445 -0)
(-7.17718e-05 -0.0490382 -0)
(-7.41691e-05 -0.0491352 -0)
(-7.63247e-05 -0.0492352 -0)
(-7.82187e-05 -0.0493376 -0)
(-7.98315e-05 -0.0494416 -0)
(-8.11489e-05 -0.0495463 -0)
(-8.21598e-05 -0.0496508 -0)
(-8.28482e-05 -0.0497547 -0)
(-8.3194e-05 -0.0498565 -0)
(-8.31822e-05 -0.049955 -0)
(-8.28042e-05 -0.0500485 -0)
(-8.20596e-05 -0.0501356 -0)
(-8.0956e-05 -0.0502155 -0)
(-7.95041e-05 -0.0502878 -0)
(-7.77171e-05 -0.0503526 -0)
(-7.56085e-05 -0.0504107 -0)
(-7.31841e-05 -0.0504638 -0)
(-7.04394e-05 -0.050513 -0)
(-6.73696e-05 -0.0505588 -0)
(-6.39702e-05 -0.0506017 -0)
(-6.02414e-05 -0.0506412 -0)
(-5.6193e-05 -0.0506773 -0)
(-8.21498e-06 -0.0438726 -0)
(-2.33881e-05 -0.0439801 -0)
(-3.66906e-05 -0.0440524 -0)
(-4.92017e-05 -0.0440991 -0)
(-6.14262e-05 -0.0441373 -0)
(-7.35088e-05 -0.0441755 -0)
(-8.54594e-05 -0.0442169 -0)
(-9.72462e-05 -0.0442629 -0)
(-0.000108829 -0.0443137 -0)
(-0.000120168 -0.0443695 -0)
(-0.000131227 -0.0444299 -0)
(-0.000141972 -0.044495 -0)
(-0.000152367 -0.0445646 -0)
(-0.000162379 -0.0446383 -0)
(-0.000171969 -0.0447161 -0)
(-0.000181101 -0.0447978 -0)
(-0.000189734 -0.0448833 -0)
(-0.000197826 -0.0449722 -0)
(-0.000205331 -0.0450645 -0)
(-0.0002122 -0.04516 -0)
(-0.000218382 -0.0452583 -0)
(-0.000223821 -0.0453588 -0)
(-0.000228465 -0.045461 -0)
(-0.000232272 -0.045563 -0)
(-0.000235212 -0.0456641 -0)
(-0.000237241 -0.0457643 -0)
(-0.000238309 -0.0458625 -0)
(-0.000238375 -0.0459575 -0)
(-0.000237411 -0.0460476 -0)
(-0.000235409 -0.0461317 -0)
(-0.00023238 -0.0462088 -0)
(-0.000228344 -0.0462788 -0)
(-0.000223326 -0.0463417 -0)
(-0.000217354 -0.0463984 -0)
(-0.000210444 -0.0464505 -0)
(-0.00020259 -0.0464989 -0)
(-0.000193786 -0.0465445 -0)
(-0.000184026 -0.0465872 -0)
(-0.000173317 -0.0466269 -0)
(-0.000161683 -0.0466635 -0)
(-1.25007e-05 -0.0401625 -0)
(-3.60106e-05 -0.0402788 -0)
(-5.72105e-05 -0.0403477 -0)
(-7.73065e-05 -0.0403946 -0)
(-9.68773e-05 -0.0404334 -0)
(-0.000116141 -0.0404718 -0)
(-0.000135142 -0.040513 -0)
(-0.000153856 -0.0405586 -0)
(-0.000172233 -0.0406091 -0)
(-0.000190221 -0.0406642 -0)
(-0.000207765 -0.040724 -0)
(-0.000224812 -0.0407882 -0)
(-0.000241307 -0.0408567 -0)
(-0.000257196 -0.0409293 -0)
(-0.000272418 -0.0410057 -0)
(-0.000286915 -0.0410857 -0)
(-0.000300622 -0.0411693 -0)
(-0.000313471 -0.0412561 -0)
(-0.000325391 -0.041346 -0)
(-0.000336307 -0.0414388 -0)
(-0.000346137 -0.0415341 -0)
(-0.000354797 -0.0416315 -0)
(-0.000362206 -0.04173 -0)
(-0.000368294 -0.0418266 -0)
(-0.000373026 -0.0419225 -0)
(-0.000376327 -0.0420175 -0)
(-0.00037812 -0.0421104 -0)
(-0.000378343 -0.0422002 -0)
(-0.00037695 -0.0422855 -0)
(-0.000373922 -0.0423652 -0)
(-0.000369262 -0.0424384 -0)
(-0.000362993 -0.042505 -0)
(-0.000355146 -0.042565 -0)
(-0.000345753 -0.0426194 -0)
(-0.00033484 -0.0426698 -0)
(-0.000322404 -0.0427171 -0)
(-0.00030844 -0.0427621 -0)
(-0.000292947 -0.0428047 -0)
(-0.000275937 -0.0428448 -0)
(-0.000257447 -0.0428821 -0)
(-1.62655e-05 -0.0366933 -0)
(-4.7089e-05 -0.0368305 -0)
(-7.52172e-05 -0.0369022 -0)
(-0.000102037 -0.0369482 -0)
(-0.000128171 -0.036986 -0)
(-0.000153862 -0.0370235 -0)
(-0.00017917 -0.0370641 -0)
(-0.000204075 -0.0371091 -0)
(-0.000228523 -0.0371589 -0)
(-0.000252451 -0.0372132 -0)
(-0.000275791 -0.037272 -0)
(-0.000298474 -0.037335 -0)
(-0.000320428 -0.0374019 -0)
(-0.000341578 -0.0374727 -0)
(-0.000361847 -0.0375469 -0)
(-0.000381153 -0.0376245 -0)
(-0.00039941 -0.0377052 -0)
(-0.000416529 -0.0377887 -0)
(-0.000432415 -0.0378749 -0)
(-0.000446968 -0.0379635 -0)
(-0.000460083 -0.0380543 -0)
(-0.000471651 -0.0381468 -0)
(-0.000481564 -0.0382393 -0)
(-0.000489727 -0.0383284 -0)
(-0.000496113 -0.0384175 -0)
(-0.000500608 -0.0385056 -0)
(-0.000503116 -0.0385917 -0)
(-0.000503554 -0.038675 -0)
(-0.000501859 -0.0387544 -0)
(-0.000497995 -0.0388286 -0)
(-0.000491961 -0.0388968 -0)
(-0.000483774 -0.0389591 -0)
(-0.000473464 -0.0390156 -0)
(-0.000461068 -0.0390669 -0)
(-0.000446619 -0.039115 -0)
(-0.000430118 -0.0391607 -0)
(-0.000411562 -0.0392046 -0)
(-0.000390953 -0.0392469 -0)
(-0.000368311 -0.0392872 -0)
(-0.000343686 -0.0393251 -0)
(-1.95575e-05 -0.0334658 -0)
(-5.67879e-05 -0.0336251 -0)
(-9.09698e-05 -0.033703 -0)
(-0.000123669 -0.0337497 -0)
(-0.000155565 -0.0337867 -0)
(-0.000186918 -0.0338233 -0)
(-0.000217792 -0.0338629 -0)
(-0.000248167 -0.033907 -0)
(-0.000277983 -0.0339556 -0)
(-0.000307168 -0.0340086 -0)
(-0.000335641 -0.0340658 -0)
(-0.00036332 -0.0341269 -0)
(-0.000390117 -0.0341916 -0)
(-0.00041594 -0.0342597 -0)
(-0.000440692 -0.0343308 -0)
(-0.000464274 -0.0344048 -0)
(-0.000486581 -0.0344813 -0)
(-0.0005075 -0.0345602 -0)
(-0.000526918 -0.0346412 -0)
(-0.000544713 -0.0347242 -0)
(-0.000560759 -0.0348088 -0)
(-0.000574923 -0.0348944 -0)
(-0.000587063 -0.0349776 -0)
(-0.000597116 -0.0350588 -0)
(-0.000605006 -0.0351396 -0)
(-0.000610605 -0.0352195 -0)
(-0.000613797 -0.0352978 -0)
(-0.000614482 -0.0353737 -0)
(-0.000612582 -0.0354461 -0)
(-0.000608045 -0.035514 -0)
(-0.000600855 -0.0355766 -0)
(-0.00059103 -0.0356339 -0)
(-0.000578592 -0.035686 -0)
(-0.000563582 -0.0357336 -0)
(-0.00054604 -0.0357787 -0)
(-0.00052597 -0.0358222 -0)
(-0.000503373 -0.0358647 -0)
(-0.000478252 -0.0359062 -0)
(-0.000450634 -0.0359462 -0)
(-0.000420578 -0.0359844 -0)
(-2.2417e-05 -0.0304711 -0)
(-6.52232e-05 -0.030655 -0)
(-0.000104644 -0.0307412 -0)
(-0.000142423 -0.0307897 -0)
(-0.000179307 -0.0308263 -0)
(-0.000215574 -0.0308618 -0)
(-0.000251294 -0.0309002 -0)
(-0.000286439 -0.0309427 -0)
(-0.000320946 -0.0309896 -0)
(-0.00035473 -0.0310406 -0)
(-0.000387702 -0.0310954 -0)
(-0.000419765 -0.0311537 -0)
(-0.000450815 -0.0312151 -0)
(-0.000480745 -0.0312795 -0)
(-0.000509442 -0.0313464 -0)
(-0.000536788 -0.0314155 -0)
(-0.00056266 -0.0314866 -0)
(-0.000586928 -0.0315596 -0)
(-0.000609458 -0.031634 -0)
(-0.00063011 -0.0317099 -0)
(-0.00064874 -0.0317868 -0)
(-0.000665192 -0.0318637 -0)
(-0.000679282 -0.0319358 -0)
(-0.000691018 -0.0320077 -0)
(-0.000700252 -0.0320792 -0)
(-0.000706848 -0.0321501 -0)
(-0.000710673 -0.0322197 -0)
(-0.000711614 -0.0322874 -0)
(-0.000709578 -0.0323524 -0)
(-0.000704495 -0.0324135 -0)
(-0.000696339 -0.0324698 -0)
(-0.000685122 -0.0325216 -0)
(-0.000670861 -0.0325688 -0)
(-0.000653596 -0.0326121 -0)
(-0.000633379 -0.0326536 -0)
(-0.000610213 -0.0326942 -0)
(-0.000584104 -0.0327346 -0)
(-0.000555055 -0.0327748 -0)
(-0.000523093 -0.032814 -0)
(-0.00048829 -0.0328519 -0)
(-2.48697e-05 -0.0276987 -0)
(-7.24772e-05 -0.0279106 -0)
(-0.000116379 -0.0280065 -0)
(-0.00015849 -0.0280575 -0)
(-0.00019963 -0.0280938 -0)
(-0.000240102 -0.0281281 -0)
(-0.000279977 -0.0281646 -0)
(-0.000319225 -0.028205 -0)
(-0.000357774 -0.0282494 -0)
(-0.000395531 -0.0282975 -0)
(-0.000432395 -0.028349 -0)
(-0.000468254 -0.0284035 -0)
(-0.000502993 -0.0284607 -0)
(-0.000536489 -0.0285202 -0)
(-0.000568613 -0.0285816 -0)
(-0.00059923 -0.0286447 -0)
(-0.0006282 -0.0287092 -0)
(-0.000655378 -0.0287749 -0)
(-0.000680611 -0.0288415 -0)
(-0.000703743 -0.0289089 -0)
(-0.000724614 -0.0289768 -0)
(-0.000743045 -0.0290435 -0)
(-0.000758805 -0.0291033 -0)
(-0.000772003 -0.0291651 -0)
(-0.000782409 -0.0292267 -0)
(-0.000789877 -0.029288 -0)
(-0.000794262 -0.0293485 -0)
(-0.000795441 -0.0294076 -0)
(-0.000793309 -0.0294647 -0)
(-0.00078778 -0.0295185 -0)
(-0.000778813 -0.0295681 -0)
(-0.00076642 -0.0296138 -0)
(-0.00075061 -0.0296556 -0)
(-0.000731422 -0.029694 -0)
(-0.00070892 -0.0297314 -0)
(-0.000683107 -0.0297686 -0)
(-0.000653991 -0.0298063 -0)
(-0.000621574 -0.0298445 -0)
(-0.00058588 -0.0298823 -0)
(-0.000546988 -0.0299192 -0)
(-2.69302e-05 -0.025138 -0)
(-7.86084e-05 -0.0253803 -0)
(-0.000126291 -0.025487 -0)
(-0.000172045 -0.0255409 -0)
(-0.000216761 -0.025577 -0)
(-0.000260771 -0.0256096 -0)
(-0.000304152 -0.0256439 -0)
(-0.000346871 -0.0256814 -0)
(-0.000388848 -0.0257224 -0)
(-0.000429981 -0.0257667 -0)
(-0.000470158 -0.0258139 -0)
(-0.000509255 -0.0258636 -0)
(-0.000547143 -0.0259155 -0)
(-0.000583686 -0.025969 -0)
(-0.000618738 -0.0260239 -0)
(-0.000652151 -0.0260798 -0)
(-0.000683767 -0.0261366 -0)
(-0.000713428 -0.026194 -0)
(-0.000740964 -0.0262518 -0)
(-0.000766203 -0.0263098 -0)
(-0.000788958 -0.0263673 -0)
(-0.000808973 -0.0264197 -0)
(-0.000826227 -0.0264699 -0)
(-0.000840654 -0.0265213 -0)
(-0.000852042 -0.0265726 -0)
(-0.000860239 -0.026624 -0)
(-0.000865091 -0.026675 -0)
(-0.000866462 -0.0267252 -0)
(-0.000864247 -0.0267741 -0)
(-0.000858338 -0.0268202 -0)
(-0.000848683 -0.0268626 -0)
(-0.000835296 -0.0269019 -0)
(-0.000818181 -0.0269377 -0)
(-0.000797372 -0.0269706 -0)
(-0.000772947 -0.0270032 -0)
(-0.000744912 -0.0270364 -0)
(-0.000713271 -0.0270709 -0)
(-0.000678023 -0.0271065 -0)
(-0.000639184 -0.0271422 -0)
(-0.000596839 -0.0271773 -0)
(-2.86086e-05 -0.022778 -0)
(-8.36644e-05 -0.0230515 -0)
(-0.000134484 -0.0231696 -0)
(-0.000183247 -0.0232266 -0)
(-0.000230915 -0.0232625 -0)
(-0.000277847 -0.0232931 -0)
(-0.000324128 -0.0233244 -0)
(-0.000369725 -0.0233584 -0)
(-0.000414551 -0.0233953 -0)
(-0.000458496 -0.023435 -0)
(-0.000501437 -0.023477 -0)
(-0.000543239 -0.0235209 -0)
(-0.00058376 -0.0235664 -0)
(-0.00062285 -0.0236131 -0)
(-0.000660351 -0.0236605 -0)
(-0.000696099 -0.0237084 -0)
(-0.000729924 -0.0237566 -0)
(-0.000761652 -0.0238049 -0)
(-0.0007911 -0.0238531 -0)
(-0.000818082 -0.023901 -0)
(-0.000842383 -0.0239474 -0)
(-0.000863665 -0.0239857 -0)
(-0.000882133 -0.0240257 -0)
(-0.000897555 -0.0240665 -0)
(-0.000909724 -0.0241075 -0)
(-0.000918491 -0.0241489 -0)
(-0.000923693 -0.0241904 -0)
(-0.000925186 -0.0242314 -0)
(-0.000922866 -0.0242716 -0)
(-0.000916609 -0.0243096 -0)
(-0.00090635 -0.0243443 -0)
(-0.000892115 -0.0243763 -0)
(-0.000873901 -0.0244055 -0)
(-0.000851739 -0.0244323 -0)
(-0.000825728 -0.0244596 -0)
(-0.000795868 -0.0244881 -0)
(-0.000762162 -0.0245187 -0)
(-0.0007246 -0.0245511 -0)
(-0.000683186 -0.024584 -0)
(-0.000638001 -0.0246166 -0)
(-2.99158e-05 -0.0206071 -0)
(-8.769e-05 -0.0209114 -0)
(-0.000141053 -0.0210409 -0)
(-0.000192252 -0.0211011 -0)
(-0.0002423 -0.0211364 -0)
(-0.000291586 -0.0211647 -0)
(-0.000340206 -0.0211927 -0)
(-0.000388129 -0.0212225 -0)
(-0.000435261 -0.0212546 -0)
(-0.000481486 -0.0212888 -0)
(-0.000526671 -0.0213248 -0)
(-0.00057067 -0.0213623 -0)
(-0.000613331 -0.0214006 -0)
(-0.000654491 -0.0214396 -0)
(-0.000693979 -0.0214789 -0)
(-0.000731618 -0.0215182 -0)
(-0.000767226 -0.0215572 -0)
(-0.000800618 -0.0215959 -0)
(-0.000831598 -0.0216342 -0)
(-0.000859959 -0.0216716 -0)
(-0.000885426 -0.0217052 -0)
(-0.000907717 -0.0217312 -0)
(-0.000927122 -0.021761 -0)
(-0.000943299 -0.0217916 -0)
(-0.00095604 -0.0218223 -0)
(-0.000965202 -0.0218538 -0)
(-0.000970617 -0.0218857 -0)
(-0.00097213 -0.0219171 -0)
(-0.000969648 -0.0219482 -0)
(-0.000963033 -0.0219775 -0)
(-0.000952208 -0.0220035 -0)
(-0.000937221 -0.0220274 -0)
(-0.000918069 -0.0220489 -0)
(-0.000894799 -0.0220691 -0)
(-0.000867502 -0.0220902 -0)
(-0.000836184 -0.0221133 -0)
(-0.000800846 -0.0221393 -0)
(-0.000761461 -0.0221677 -0)
(-0.000718023 -0.0221972 -0)
(-0.000670589 -0.0222263 -0)
(-3.08651e-05 -0.0186134 -0)
(-9.0732e-05 -0.0189468 -0)
(-0.000146095 -0.0190874 -0)
(-0.000199205 -0.0191506 -0)
(-0.000251113 -0.0191852 -0)
(-0.000302234 -0.0192109 -0)
(-0.000352677 -0.019235 -0)
(-0.000402412 -0.0192602 -0)
(-0.000451343 -0.0192869 -0)
(-0.000499348 -0.0193152 -0)
(-0.000546284 -0.0193446 -0)
(-0.000591999 -0.0193749 -0)
(-0.000636329 -0.0194057 -0)
(-0.0006791 -0.0194365 -0)
(-0.000720132 -0.0194672 -0)
(-0.000759235 -0.0194975 -0)
(-0.000796217 -0.0195271 -0)
(-0.000830881 -0.019556 -0)
(-0.000863021 -0.0195842 -0)
(-0.000892404 -0.0196108 -0)
(-0.000918573 -0.0196291 -0)
(-0.000941728 -0.0196467 -0)
(-0.000961797 -0.0196666 -0)
(-0.000978487 -0.0196872 -0)
(-0.000991581 -0.019708 -0)
(-0.00100095 -0.0197297 -0)
(-0.00100642 -0.0197518 -0)
(-0.00100782 -0.0197733 -0)
(-0.00100508 -0.0197948 -0)
(-0.00099805 -0.0198144 -0)
(-0.000986657 -0.0198309 -0)
(-0.000970967 -0.0198456 -0)
(-0.000950982 -0.0198583 -0)
(-0.000926802 -0.0198709 -0)
(-0.000898457 -0.0198845 -0)
(-0.000865997 -0.0199008 -0)
(-0.00082942 -0.0199208 -0)
(-0.000788677 -0.0199442 -0)
(-0.000743733 -0.0199691 -0)
(-0.000694631 -0.019994 -0)
(-3.14734e-05 -0.0167855 -0)
(-9.28413e-05 -0.017145 -0)
(-0.000149704 -0.0172957 -0)
(-0.000204248 -0.0173617 -0)
(-0.000257543 -0.0173955 -0)
(-0.000310025 -0.0174184 -0)
(-0.000361814 -0.0174384 -0)
(-0.000412885 -0.0174585 -0)
(-0.000463143 -0.0174795 -0)
(-0.000512458 -0.0175014 -0)
(-0.000560683 -0.0175239 -0)
(-0.000607657 -0.0175468 -0)
(-0.000653208 -0.0175696 -0)
(-0.000697154 -0.0175921 -0)
(-0.000739304 -0.0176141 -0)
(-0.000779461 -0.0176352 -0)
(-0.000817421 -0.0176554 -0)
(-0.000852982 -0.0176747 -0)
(-0.000885928 -0.017693 -0)
(-0.000916003 -0.0177091 -0)
(-0.000942593 -0.0177141 -0)
(-0.000966286 -0.0177227 -0)
(-0.000986759 -0.0177333 -0)
(-0.00100372 -0.0177446 -0)
(-0.00101695 -0.0177557 -0)
(-0.00102633 -0.0177677 -0)
(-0.00103168 -0.01778 -0)
(-0.0010328 -0.0177911 -0)
(-0.00102968 -0.0178024 -0)
(-0.00102214 -0.0178117 -0)
(-0.00101016 -0.0178184 -0)
(-0.000993727 -0.0178222 -0)
(-0.000972917 -0.0178239 -0)
(-0.000947862 -0.0178258 -0)
(-0.000918633 -0.0178295 -0)
(-0.000885295 -0.0178372 -0)
(-0.000847836 -0.01785 -0)
(-0.000806179 -0.0178672 -0)
(-0.000760243 -0.0178866 -0)
(-0.000710047 -0.0179065 -0)
(-3.17615e-05 -0.0151119 -0)
(-9.40736e-05 -0.0154937 -0)
(-0.000151972 -0.0156533 -0)
(-0.000207515 -0.0157218 -0)
(-0.000261766 -0.0157546 -0)
(-0.000315174 -0.0157745 -0)
(-0.000367873 -0.0157903 -0)
(-0.000419842 -0.0158053 -0)
(-0.000470985 -0.0158203 -0)
(-0.000521172 -0.0158357 -0)
(-0.00057025 -0.0158511 -0)
(-0.000618051 -0.0158664 -0)
(-0.000664399 -0.0158812 -0)
(-0.000709104 -0.0158954 -0)
(-0.000751968 -0.0159087 -0)
(-0.000792787 -0.0159209 -0)
(-0.000831348 -0.015932 -0)
(-0.000867444 -0.0159419 -0)
(-0.000900844 -0.0159506 -0)
(-0.000931032 -0.0159521 -0)
(-0.000958041 -0.0159502 -0)
(-0.000981984 -0.0159503 -0)
(-0.00100261 -0.0159522 -0)
(-0.00101961 -0.0159546 -0)
(-0.00103273 -0.0159561 -0)
(-0.00104192 -0.0159587 -0)
(-0.00104697 -0.0159614 -0)
(-0.00104772 -0.0159632 -0)
(-0.00104405 -0.0159637 -0)
(-0.00103585 -0.0159615 -0)
(-0.00102307 -0.0159556 -0)
(-0.00100575 -0.015946 -0)
(-0.000984004 -0.0159339 -0)
(-0.000958038 -0.015922 -0)
(-0.000927987 -0.015913 -0)
(-0.000893947 -0.0159096 -0)
(-0.000855905 -0.0159131 -0)
(-0.00081374 -0.0159226 -0)
(-0.000767307 -0.0159355 -0)
(-0.000716583 -0.0159493 -0)
(-3.17537e-05 -0.0135818 -0)
(-9.44895e-05 -0.0139813 -0)
(-0.000152995 -0.0141483 -0)
(-0.000209137 -0.0142188 -0)
(-0.000263949 -0.0142506 -0)
(-0.000317886 -0.0142675 -0)
(-0.000371092 -0.0142791 -0)
(-0.000423552 -0.0142889 -0)
(-0.000475173 -0.014298 -0)
(-0.000525822 -0.0143068 -0)
(-0.000575343 -0.0143152 -0)
(-0.000623567 -0.014323 -0)
(-0.00067031 -0.0143301 -0)
(-0.00071538 -0.0143361 -0)
(-0.000758574 -0.014341 -0)
(-0.000799683 -0.0143447 -0)
(-0.000838489 -0.0143471 -0)
(-0.000874778 -0.0143482 -0)
(-0.000908321 -0.0143479 -0)
(-0.000938358 -0.0143372 -0)
(-0.000965464 -0.0143281 -0)
(-0.000989375 -0.0143202 -0)
(-0.0010099 -0.014314 -0)
(-0.00102672 -0.014308 -0)
(-0.0010396 -0.0143016 -0)
(-0.00104842 -0.0142953 -0)
(-0.00105299 -0.0142886 -0)
(-0.00105313 -0.0142802 -0)
(-0.00104872 -0.0142693 -0)
(-0.00103961 -0.014254 -0)
(-0.00102577 -0.0142333 -0)
(-0.00100728 -0.0142072 -0)
(-0.000984359 -0.0141776 -0)
(-0.000957294 -0.014148 -0)
(-0.00092634 -0.0141225 -0)
(-0.000891656 -0.0141046 -0)
(-0.000853239 -0.0140961 -0)
(-0.000810915 -0.0140959 -0)
(-0.000764448 -0.0141005 -0)
(-0.000713755 -0.0141071 -0)
(-3.1477e-05 -0.012185 -0)
(-9.41539e-05 -0.0125972 -0)
(-0.000152868 -0.0127699 -0)
(-0.000209241 -0.0128418 -0)
(-0.00026425 -0.0128725 -0)
(-0.000318351 -0.0128865 -0)
(-0.000371694 -0.0128939 -0)
(-0.000424269 -0.0128987 -0)
(-0.000475988 -0.0129021 -0)
(-0.000526717 -0.0129046 -0)
(-0.0005763 -0.0129062 -0)
(-0.000624564 -0.0129068 -0)
(-0.000671326 -0.0129063 -0)
(-0.00071639 -0.0129046 -0)
(-0.000759551 -0.0129017 -0)
(-0.000800599 -0.0128973 -0)
(-0.000839311 -0.0128916 -0)
(-0.000875456 -0.0128844 -0)
(-0.000908625 -0.0128727 -0)
(-0.000938472 -0.0128547 -0)
(-0.000965392 -0.0128389 -0)
(-0.000989071 -0.0128243 -0)
(-0.00100927 -0.0128107 -0)
(-0.00102571 -0.0127972 -0)
(-0.00103813 -0.0127829 -0)
(-0.0010464 -0.0127684 -0)
(-0.00105031 -0.0127524 -0)
(-0.00104964 -0.0127337 -0)
(-0.00104422 -0.0127104 -0)
(-0.00103389 -0.0126804 -0)
(-0.00101863 -0.0126422 -0)
(-0.000998563 -0.0125961 -0)
(-0.000974027 -0.0125446 -0)
(-0.000945482 -0.0124926 -0)
(-0.000913353 -0.0124457 -0)
(-0.000877918 -0.0124088 -0)
(-0.000839208 -0.0123845 -0)
(-0.00079699 -0.0123716 -0)
(-0.000750905 -0.0123657 -0)
(-0.000700787 -0.0123633 -0)
(-3.09606e-05 -0.0109115 -0)
(-9.31346e-05 -0.0113312 -0)
(-0.000151686 -0.0115078 -0)
(-0.000207947 -0.0115807 -0)
(-0.00026282 -0.0116102 -0)
(-0.000316748 -0.0116214 -0)
(-0.000369885 -0.0116249 -0)
(-0.000422229 -0.0116248 -0)
(-0.000473692 -0.0116228 -0)
(-0.000524146 -0.0116193 -0)
(-0.000573433 -0.0116144 -0)
(-0.000621379 -0.0116082 -0)
(-0.000667805 -0.0116007 -0)
(-0.000712512 -0.0115918 -0)
(-0.000755297 -0.0115814 -0)
(-0.000795948 -0.0115697 -0)
(-0.000834247 -0.0115565 -0)
(-0.000869974 -0.011542 -0)
(-0.000902387 -0.0115191 -0)
(-0.000931901 -0.0114962 -0)
(-0.00095838 -0.0114743 -0)
(-0.000981576 -0.0114534 -0)
(-0.00100125 -0.0114331 -0)
(-0.0010171 -0.0114127 -0)
(-0.0010289 -0.0113915 -0)
(-0.00103646 -0.0113691 -0)
(-0.00103952 -0.0113444 -0)
(-0.00103782 -0.0113151 -0)
(-0.00103112 -0.0112787 -0)
(-0.0010192 -0.0112323 -0)
(-0.00100201 -0.0111737 -0)
(-0.000979771 -0.0111035 -0)
(-0.000952975 -0.0110249 -0)
(-0.000922322 -0.0109445 -0)
(-0.0008885 -0.0108702 -0)
(-0.000851987 -0.0108088 -0)
(-0.000812893 -0.0107639 -0)
(-0.000770926 -0.0107344 -0)
(-0.000725568 -0.0107148 -0)
(-0.000676133 -0.010694 -0)
(-3.02348e-05 -0.00975256 -0)
(-9.15016e-05 -0.0101744 -0)
(-0.000149544 -0.0103529 -0)
(-0.000205373 -0.0104262 -0)
(-0.0002598 -0.0104544 -0)
(-0.000313243 -0.010463 -0)
(-0.000365859 -0.0104629 -0)
(-0.000417649 -0.0104583 -0)
(-0.000468531 -0.0104511 -0)
(-0.000518378 -0.010442 -0)
(-0.000567036 -0.0104312 -0)
(-0.000614335 -0.0104187 -0)
(-0.000660095 -0.0104047 -0)
(-0.00070412 -0.0103892 -0)
(-0.000746211 -0.0103721 -0)
(-0.000786158 -0.0103537 -0)
(-0.000823745 -0.0103338 -0)
(-0.000858653 -0.0103113 -0)
(-0.000890225 -0.0102809 -0)
(-0.000919085 -0.0102527 -0)
(-0.000944883 -0.0102254 -0)
(-0.000967377 -0.0101988 -0)
(-0.000986323 -0.0101726 -0)
(-0.00100144 -0.0101461 -0)
(-0.00101246 -0.0101186 -0)
(-0.00101916 -0.0100892 -0)
(-0.00102122 -0.0100561 -0)
(-0.00101829 -0.0100164 -0)
(-0.00100998 -0.00996627 -0)
(-0.000996 -0.00990159 -0)
(-0.000976256 -0.0098196 -0)
(-0.00095104 -0.00972056 -0)
(-0.000921068 -0.00960895 -0)
(-0.000887374 -0.00949334 -0)
(-0.00085103 -0.00938428 -0)
(-0.000812827 -0.00929129 -0)
(-0.000773028 -0.00921968 -0)
(-0.000731295 -0.00916845 -0)
(-0.000686913 -0.00913085 -0)
(-0.000638843 -0.00909266 -0)
(-2.93301e-05 -0.00869935 -0)
(-8.93272e-05 -0.00911848 -0)
(-0.000146538 -0.00929697 -0)
(-0.000201639 -0.00937 -0)
(-0.00025533 -0.00939687 -0)
(-0.000308 -0.0094031 -0)
(-0.000359802 -0.00939958 -0)
(-0.000410742 -0.00939091 -0)
(-0.00046074 -0.00937903 -0)
(-0.000509674 -0.00936475 -0)
(-0.000557394 -0.00934842 -0)
(-0.000603735 -0.00933024 -0)
(-0.000648519 -0.00931034 -0)
(-0.000691556 -0.00928879 -0)
(-0.000732651 -0.00926569 -0)
(-0.0007716 -0.00924116 -0)
(-0.000808191 -0.00921525 -0)
(-0.000841703 -0.00918226 -0)
(-0.000872483 -0.00914864 -0)
(-0.000900437 -0.00911579 -0)
(-0.000925322 -0.00908353 -0)
(-0.000946912 -0.00905185 -0)
(-0.000964964 -0.00902051 -0)
(-0.0009792 -0.00898883 -0)
(-0.000989338 -0.00895591 -0)
(-0.000995074 -0.00892043 -0)
(-0.000996 -0.00887975 -0)
(-0.000991613 -0.00882979 -0)
(-0.000981361 -0.00876528 -0)
(-0.000964769 -0.0086806 -0)
(-0.00094167 -0.00857181 -0)
(-0.000912429 -0.00843889 -0)
(-0.00087804 -0.00828746 -0)
(-0.000839996 -0.00812855 -0)
(-0.000799909 -0.00797616 -0)
(-0.000759042 -0.00784319 -0)
(-0.000717914 -0.00773727 -0)
(-0.000676166 -0.00765779 -0)
(-0.000632211 -0.00758884 -0)
(-0.000586966 -0.00754218 -0)
(-2.82764e-05 -0.00774383 -0)
(-8.66831e-05 -0.00815572 -0)
(-0.000142766 -0.00833245 -0)
(-0.000196862 -0.0084046 -0)
(-0.000249548 -0.00843007 -0)
(-0.000301178 -0.00843404 -0)
(-0.000351897 -0.00842745 -0)
(-0.00040171 -0.00841505 -0)
(-0.000450544 -0.0083989 -0)
(-0.000498281 -0.00837995 -0)
(-0.000544775 -0.00835863 -0)
(-0.000589867 -0.00833525 -0)
(-0.000633384 -0.00831 -0)
(-0.000675143 -0.00828301 -0)
(-0.000714957 -0.00825445 -0)
(-0.000752628 -0.00822446 -0)
(-0.000787913 -0.00819268 -0)
(-0.000819913 -0.00815214 -0)
(-0.000849516 -0.00811423 -0)
(-0.000876313 -0.00807703 -0)
(-0.00090007 -0.00804039 -0)
(-0.000920573 -0.00800433 -0)
(-0.000937591 -0.0079687 -0)
(-0.000950847 -0.00793283 -0)
(-0.000960026 -0.00789561 -0)
(-0.000964735 -0.00785507 -0)
(-0.000964427 -0.00780763 -0)
(-0.000958387 -0.00774779 -0)
(-0.000945802 -0.0076684 -0)
(-0.000925945 -0.00756188 -0)
(-0.000898497 -0.00742266 -0)
(-0.000863881 -0.00725022 -0)
(-0.00082344 -0.00705131 -0)
(-0.000779274 -0.00683992 -0)
(-0.000733745 -0.00663422 -0)
(-0.000688788 -0.00645138 -0)
(-0.000645331 -0.00630203 -0)
(-0.000603043 -0.00618629 -0)
(-0.000559909 -0.00608596 -0)
(-0.000517874 -0.00602439 -0)
(-2.71022e-05 -0.00687844 -0)
(-8.364e-05 -0.00727914 -0)
(-0.000138324 -0.00745249 -0)
(-0.000191157 -0.00752317 -0)
(-0.00024259 -0.00754712 -0)
(-0.000292933 -0.00754896 -0)
(-0.000342318 -0.00753958 -0)
(-0.000390751 -0.0075238 -0)
(-0.000438162 -0.00750378 -0)
(-0.000484438 -0.00748059 -0)
(-0.000529436 -0.00745476 -0)
(-0.000573006 -0.00742666 -0)
(-0.000614981 -0.00739657 -0)
(-0.000655187 -0.00736466 -0)
(-0.000693442 -0.00733113 -0)
(-0.000729557 -0.00729615 -0)
(-0.00076276 -0.00725417 -0)
(-0.000793457 -0.00721144 -0)
(-0.000821623 -0.00716962 -0)
(-0.000847024 -0.00712849 -0)
(-0.000869452 -0.00708804 -0)
(-0.000888716 -0.00704842 -0)
(-0.000904599 -0.0070095 -0)
(-0.000916821 -0.00697059 -0)
(-0.000925019 -0.00693029 -0)
(-0.000928685 -0.00688589 -0)
(-0.000927074 -0.00683266 -0)
(-0.000919183 -0.00676335 -0)
(-0.000903829 -0.00666856 -0)
(-0.000879915 -0.00653818 -0)
(-0.000846876 -0.00636455 -0)
(-0.000805168 -0.0061463 -0)
(-0.000756554 -0.00589135 -0)
(-0.000703934 -0.00561709 -0)
(-0.00065067 -0.00534669 -0)
(-0.000599641 -0.00510251 -0)
(-0.000552376 -0.00489897 -0)
(-0.000508536 -0.00473621 -0)
(-0.000466497 -0.00460229 -0)
(-0.000428218 -0.00452075 -0)
(-2.58342e-05 -0.00609612 -0)
(-8.02662e-05 -0.00648232 -0)
(-0.000133308 -0.00665086 -0)
(-0.000184644 -0.0067195 -0)
(-0.000234594 -0.00674179 -0)
(-0.000283421 -0.0067416 -0)
(-0.000331242 -0.00672964 -0)
(-0.000378061 -0.00671077 -0)
(-0.000423808 -0.00668724 -0)
(-0.000468375 -0.0066602 -0)
(-0.000511625 -0.00663025 -0)
(-0.000553413 -0.00659785 -0)
(-0.000593583 -0.00656331 -0)
(-0.000631965 -0.00652686 -0)
(-0.000668388 -0.00648872 -0)
(-0.000702552 -0.00644795 -0)
(-0.000733648 -0.00639921 -0)
(-0.000762596 -0.00635276 -0)
(-0.00078906 -0.00630726 -0)
(-0.000812843 -0.00626268 -0)
(-0.000833772 -0.00621916 -0)
(-0.000851684 -0.00617692 -0)
(-0.000866377 -0.00613585 -0)
(-0.000877563 -0.00609519 -0)
(-0.000884811 -0.00605312 -0)
(-0.000887461 -0.00600612 -0)
(-0.000884507 -0.00594808 -0)
(-0.000874552 -0.00586971 -0)
(-0.000855913 -0.00575884 -0)
(-0.000826969 -0.00560232 -0)
(-0.000786784 -0.0053898 -0)
(-0.000735804 -0.0051187 -0)
(-0.000676303 -0.00479813 -0)
(-0.000612203 -0.00444936 -0)
(-0.000548195 -0.0041014 -0)
(-0.000488432 -0.00378282 -0)
(-0.000435291 -0.00351259 -0)
(-0.000387566 -0.00328326 -0)
(-0.000347441 -0.00311725 -0)
(-0.000313716 -0.00301192 -0)
(-2.4497e-05 -0.00539026 -0)
(-7.66271e-05 -0.0057593 -0)
(-0.00012781 -0.00592183 -0)
(-0.000177437 -0.00598791 -0)
(-0.000225696 -0.00600837 -0)
(-0.0002728 -0.00600618 -0)
(-0.000318845 -0.00599181 -0)
(-0.000363832 -0.00597008 -0)
(-0.000407692 -0.00594331 -0)
(-0.000450318 -0.00591271 -0)
(-0.000491579 -0.00587894 -0)
(-0.000531336 -0.00584252 -0)
(-0.00056944 -0.00580381 -0)
(-0.000605729 -0.00576306 -0)
(-0.000640037 -0.00572049 -0)
(-0.000671424 -0.00566967 -0)
(-0.000700611 -0.00561885 -0)
(-0.000727539 -0.00556897 -0)
(-0.000752058 -0.0055202 -0)
(-0.000774031 -0.00547281 -0)
(-0.00079333 -0.0054271 -0)
(-0.000809825 -0.00538334 -0)
(-0.000823327 -0.00534139 -0)
(-0.000833527 -0.00530031 -0)
(-0.000839905 -0.00525783 -0)
(-0.000841603 -0.00520946 -0)
(-0.000837275 -0.00514751 -0)
(-0.000825006 -0.00506029 -0)
(-0.000802441 -0.0049324 -0)
(-0.000767247 -0.004747 -0)
(-0.000717952 -0.00449044 -0)
(-0.000654937 -0.00415853 -0)
(-0.000581089 -0.0037616 -0)
(-0.000501636 -0.00332533 -0)
(-0.000423 -0.0028855 -0)
(-0.000351024 -0.00247788 -0)
(-0.000289262 -0.00212687 -0)
(-0.000236698 -0.00182669 -0)
(-0.00019758 -0.00161479 -0)
(-0.000169034 -0.00147849 -0)
(-2.31127e-05 -0.0047547 -0)
(-7.27845e-05 -0.00510457 -0)
(-0.000121924 -0.00526009 -0)
(-0.000169653 -0.00532315 -0)
(-0.000216034 -0.00534161 -0)
(-0.000261225 -0.00533741 -0)
(-0.000305303 -0.0053207 -0)
(-0.000348258 -0.00529627 -0)
(-0.00039002 -0.00526643 -0)
(-0.000430485 -0.00523244 -0)
(-0.000469523 -0.00519503 -0)
(-0.000507002 -0.00515473 -0)
(-0.000542777 -0.00511196 -0)
(-0.000576693 -0.00506697 -0)
(-0.00060814 -0.00501621 -0)
(-0.00063701 -0.00496083 -0)
(-0.000663847 -0.00490669 -0)
(-0.000688488 -0.00485365 -0)
(-0.000710852 -0.00480221 -0)
(-0.000730866 -0.00475284 -0)
(-0.000748455 -0.00470599 -0)
(-0.000763519 -0.00466192 -0)
(-0.00077588 -0.0046204 -0)
(-0.000785192 -0.00458025 -0)
(-0.000790817 -0.00453862 -0)
(-0.000791647 -0.00448997 -0)
(-0.000785897 -0.0044248 -0)
(-0.000770985 -0.00432865 -0)
(-0.000743671 -0.00418235 -0)
(-0.000700668 -0.00396469 -0)
(-0.000639766 -0.00365806 -0)
(-0.000561202 -0.00325626 -0)
(-0.00046861 -0.00277089 -0)
(-0.00036888 -0.00223268 -0)
(-0.000270666 -0.00168514 -0)
(-0.000182003 -0.00117218 -0)
(-0.000107907 -0.0007237 -0)
(-4.87735e-05 -0.000343295 -0)
(-1.01453e-05 -7.56302e-05 -0)
(1.25253e-05 9.99631e-05 0)
(-2.17012e-05 -0.00418365 -0)
(-6.87961e-05 -0.00451296 -0)
(-0.000115736 -0.00466072 -0)
(-0.000161405 -0.00472036 -0)
(-0.000205744 -0.00473662 -0)
(-0.000248854 -0.00473034 -0)
(-0.000290788 -0.00471131 -0)
(-0.000331525 -0.0046842 -0)
(-0.000370992 -0.00465135 -0)
(-0.000409081 -0.00461404 -0)
(-0.000445666 -0.004573 -0)
(-0.000480614 -0.00452882 -0)
(-0.000513789 -0.00448194 -0)
(-0.000544893 -0.00443142 -0)
(-0.000573055 -0.00437213 -0)
(-0.000599322 -0.00431401 -0)
(-0.000623533 -0.00425678 -0)
(-0.000645664 -0.00420115 -0)
(-0.000665713 -0.00414786 -0)
(-0.000683673 -0.00409755 -0)
(-0.000699521 -0.00405071 -0)
(-0.000713192 -0.00400758 -0)
(-0.000724505 -0.00396776 -0)
(-0.000733061 -0.00392976 -0)
(-0.000738071 -0.00389008 -0)
(-0.000738111 -0.003842 -0)
(-0.000730842 -0.00377397 -0)
(-0.000712826 -0.00366838 -0)
(-0.000679679 -0.00350169 -0)
(-0.000626852 -0.00324756 -0)
(-0.000551142 -0.00288373 -0)
(-0.00045255 -0.00240156 -0)
(-0.000335633 -0.00181413 -0)
(-0.000209392 -0.00115792 -0)
(-8.53391e-05 -0.000485217 -0)
(2.56834e-05 0.000151011 0)
(0.000117752 0.000720844 0)
(0.000184782 0.00118718 0)
(0.000223314 0.00152004 0)
(0.000239323 0.00174503 0)
(-2.028e-05 -0.00367172 -0)
(-6.47153e-05 -0.00397965 -0)
(-0.000109331 -0.00411909 -0)
(-0.000152804 -0.00417496 -0)
(-0.000194959 -0.0041888 -0)
(-0.000235839 -0.00418032 -0)
(-0.000275469 -0.00415888 -0)
(-0.000313815 -0.00412905 -0)
(-0.000350796 -0.00409312 -0)
(-0.0003863 -0.00405239 -0)
(-0.000420196 -0.00400761 -0)
(-0.000452353 -0.00395939 -0)
(-0.000482636 -0.00390818 -0)
(-0.000509877 -0.00384646 -0)
(-0.000535215 -0.00378503 -0)
(-0.000558536 -0.00372388 -0)
(-0.000579889 -0.00366409 -0)
(-0.000599343 -0.00360668 -0)
(-0.000616972 -0.00355255 -0)
(-0.000632838 -0.00350243 -0)
(-0.000646968 -0.0034568 -0)
(-0.000659322 -0.00341578 -0)
(-0.00066971 -0.00337879 -0)
(-0.000677658 -0.00334396 -0)
(-0.000682186 -0.00330708 -0)
(-0.00068148 -0.0032601 -0)
(-0.000672506 -0.00318919 -0)
(-0.000650735 -0.00307313 -0)
(-0.000610307 -0.00288332 -0)
(-0.000545035 -0.00258748 -0)
(-0.000450398 -0.00215795 -0)
(-0.000326055 -0.00158333 -0)
(-0.000177724 -0.000878441 -0)
(-1.70962e-05 -8.64006e-05 -0)
(0.000140675 0.000730614 0)
(0.000281137 0.00150945 0)
(0.00039712 0.00221971 0)
(0.000474346 0.00278322 0)
(0.000513368 0.00319309 0)
(0.000521826 0.00347999 0)
(-1.88642e-05 -0.00321386 -0)
(-6.05905e-05 -0.00350007 -0)
(-0.000102787 -0.00363082 -0)
(-0.000143955 -0.00368261 -0)
(-0.000183806 -0.00369382 -0)
(-0.000222325 -0.00368295 -0)
(-0.000259506 -0.00365894 -0)
(-0.000295298 -0.00362621 -0)
(-0.000329607 -0.00358702 -0)
(-0.000362313 -0.00354267 -0)