/*--------------------------------*- C++ -*----------------------------------*\
  =========                 |
  \\      /  F ield         | OpenFOAM: The Open Source CFD Toolbox
   \\    /   O peration     | Website:  https://openfoam.org
    \\  /    A nd           | Version:  6
     \\/     M anipulation  |
\*---------------------------------------------------------------------------*/
FoamFile
{
    version     2.0;
    format      ascii;
    class       volScalarField;
    location    "10";
    object      neg;
}
// * * * * * * * * * * * * * * * * * * * * * * * * * * * * * * * * * * * * * //

dimensions      [0 -3 1 0 0 1 0];

internalField   nonuniform List<scalar> 
8800
(
2.21941e-05
2.2256e-05
2.22588e-05
2.22036e-05
2.21584e-05
2.21262e-05
2.21029e-05
2.20761e-05
2.2046e-05
2.20126e-05
2.19761e-05
2.19366e-05
2.18941e-05
2.18488e-05
2.1801e-05
2.17506e-05
2.16979e-05
2.16431e-05
2.15864e-05
2.15279e-05
2.14678e-05
2.14065e-05
2.13441e-05
2.12826e-05
2.12263e-05
2.11702e-05
2.1114e-05
2.10577e-05
2.10009e-05
2.09433e-05
2.08847e-05
2.08253e-05
2.07654e-05
2.07056e-05
2.06463e-05
2.05882e-05
2.05328e-05
2.04799e-05
2.04292e-05
2.03828e-05
4.39412e-05
4.43277e-05
4.43223e-05
4.42555e-05
4.4195e-05
4.41398e-05
4.40849e-05
4.40265e-05
4.39633e-05
4.38945e-05
4.382e-05
4.37399e-05
4.36544e-05
4.35637e-05
4.34682e-05
4.33682e-05
4.32643e-05
4.31569e-05
4.30463e-05
4.2933e-05
4.28175e-05
4.27001e-05
4.25818e-05
4.24721e-05
4.2376e-05
4.22814e-05
4.2187e-05
4.20914e-05
4.19927e-05
4.18897e-05
4.17813e-05
4.16675e-05
4.15489e-05
4.14271e-05
4.13042e-05
4.1182e-05
4.10632e-05
4.09486e-05
4.08379e-05
4.07336e-05
6.56481e-05
6.61136e-05
6.61442e-05
6.60621e-05
6.5973e-05
6.58874e-05
6.5802e-05
6.57108e-05
6.56123e-05
6.55061e-05
6.53921e-05
6.52706e-05
6.5142e-05
6.50069e-05
6.48661e-05
6.47202e-05
6.45703e-05
6.4417e-05
6.42612e-05
6.41035e-05
6.39445e-05
6.3785e-05
6.3628e-05
6.34999e-05
6.3386e-05
6.32754e-05
6.31646e-05
6.30498e-05
6.2927e-05
6.27926e-05
6.26447e-05
6.24826e-05
6.23074e-05
6.21222e-05
6.1931e-05
6.17377e-05
6.15465e-05
6.13597e-05
6.11777e-05
6.10036e-05
8.7153e-05
8.75035e-05
8.75262e-05
8.74434e-05
8.73419e-05
8.72349e-05
8.7122e-05
8.69991e-05
8.68658e-05
8.67225e-05
8.65699e-05
8.64088e-05
8.62403e-05
8.60654e-05
8.58856e-05
8.57021e-05
8.55164e-05
8.53296e-05
8.5143e-05
8.49574e-05
8.47736e-05
8.45928e-05
8.44248e-05
8.43095e-05
8.42024e-05
8.40995e-05
8.39946e-05
8.38806e-05
8.37507e-05
8.35988e-05
8.34211e-05
8.32167e-05
8.2987e-05
8.27369e-05
8.24732e-05
8.2202e-05
8.19298e-05
8.16607e-05
8.13963e-05
8.1141e-05
0.00010825
0.000108419
0.000108395
0.000108302
0.000108189
0.000108064
0.000107927
0.000107776
0.00010761
0.000107434
0.000107247
0.000107052
0.000106851
0.000106646
0.000106438
0.000106229
0.000106023
0.000105819
0.000105621
0.000105428
0.000105242
0.000105066
0.000104932
0.000104845
0.000104769
0.000104696
0.000104617
0.000104522
0.0001044
0.000104243
0.000104044
0.000103802
0.000103519
0.000103202
0.000102862
0.000102506
0.000102145
0.000101784
0.000101428
0.000101082
0.00012883
0.00012876
0.000128659
0.000128542
0.000128416
0.000128276
0.000128119
0.000127944
0.000127753
0.000127551
0.000127339
0.00012712
0.000126897
0.000126674
0.000126453
0.000126236
0.000126027
0.000125826
0.000125636
0.000125458
0.000125294
0.000125152
0.000125085
0.00012505
0.000125026
0.000125003
0.000124968
0.000124907
0.000124806
0.000124653
0.000124439
0.000124162
0.000123826
0.00012344
0.000123017
0.00012257
0.000122112
0.000121652
0.000121195
0.00012075
0.000148815
0.000148441
0.000148235
0.000148083
0.000147943
0.000147791
0.00014762
0.000147429
0.000147223
0.000147005
0.000146779
0.00014655
0.000146321
0.000146096
0.000145878
0.000145671
0.000145478
0.000145301
0.000145142
0.000145001
0.000144881
0.0001448
0.000144831
0.000144866
0.000144912
0.000144955
0.000144978
0.000144964
0.000144894
0.000144752
0.000144527
0.000144218
0.000143827
0.000143366
0.000142854
0.000142309
0.000141746
0.000141178
0.000140613
0.000140062
0.00016814
0.000167399
0.000167062
0.000166867
0.000166712
0.000166553
0.000166376
0.000166181
0.00016597
0.00016575
0.000165524
0.0001653
0.00016508
0.00016487
0.000164674
0.000164496
0.000164339
0.000164206
0.000164096
0.000164013
0.000163964
0.000164002
0.000164115
0.000164235
0.000164363
0.000164484
0.000164577
0.000164619
0.000164588
0.000164463
0.000164232
0.000163889
0.00016344
0.000162899
0.00016229
0.000161636
0.000160958
0.000160274
0.000159594
0.00015893
0.000186752
0.00018559
0.000185101
0.000184858
0.000184689
0.000184529
0.000184355
0.000184166
0.000183963
0.000183754
0.000183545
0.00018334
0.000183147
0.00018297
0.000182813
0.000182681
0.000182578
0.000182505
0.000182463
0.000182456
0.000182497
0.000182674
0.000182879
0.000183094
0.000183316
0.000183524
0.000183695
0.000183802
0.000183817
0.000183714
0.000183478
0.000183102
0.000182591
0.000181962
0.000181246
0.000180472
0.000179668
0.000178856
0.000178051
0.000177269
0.000204608
0.000202989
0.000202334
0.000202036
0.000201856
0.0002017
0.00020154
0.000201367
0.000201186
0.000201003
0.000200823
0.000200655
0.000200503
0.000200374
0.000200272
0.000200202
0.000200167
0.000200169
0.000200209
0.000200292
0.000200452
0.000200763
0.000201069
0.000201386
0.000201706
0.000202009
0.000202265
0.000202443
0.00020251
0.000202436
0.000202198
0.000201788
0.00020121
0.000200481
0.000199647
0.000198741
0.0001978
0.00019685
0.000195912
0.000195005
0.000221682
0.000219587
0.000218754
0.000218399
0.00021821
0.000218066
0.000217927
0.000217782
0.000217633
0.000217488
0.000217352
0.000217232
0.000217135
0.000217067
0.000217033
0.000217038
0.000217083
0.000217171
0.000217303
0.000217488
0.000217816
0.000218221
0.000218631
0.000219052
0.000219476
0.000219877
0.000220223
0.00022048
0.000220606
0.000220564
0.000220324
0.000219877
0.00021923
0.0002184
0.000217439
0.000216391
0.000215298
0.000214197
0.000213114
0.000212072
0.000237957
0.000235383
0.000234369
0.000233955
0.000233759
0.000233632
0.000233521
0.000233413
0.000233308
0.000233211
0.000233129
0.000233069
0.000233038
0.000233041
0.000233084
0.00023317
0.000233303
0.000233484
0.000233713
0.000234005
0.000234498
0.000235002
0.000235515
0.000236041
0.00023657
0.000237073
0.000237514
0.000237856
0.000238043
0.000238036
0.000237801
0.000237322
0.000236606
0.000235675
0.000234581
0.000233379
0.000232121
0.000230854
0.000229612
0.000228423
0.000253424
0.000250388
0.000249194
0.000248722
0.000248521
0.000248413
0.000248337
0.000248272
0.000248217
0.000248176
0.000248156
0.000248164
0.000248205
0.000248286
0.000248412
0.000248586
0.00024881
0.000249086
0.000249416
0.000249878
0.000250464
0.000251065
0.00025168
0.00025231
0.000252948
0.000253553
0.000254089
0.000254514
0.000254767
0.000254803
0.00025458
0.000254079
0.000253301
0.00025227
0.000251042
0.000249678
0.000248244
0.000246795
0.000245378
0.000244027
0.000268082
0.000264616
0.000263249
0.000262719
0.000262513
0.000262429
0.00026239
0.000262372
0.000262372
0.000262393
0.000262439
0.000262519
0.000262637
0.000262798
0.000263009
0.000263271
0.000263587
0.000263958
0.000264385
0.000265011
0.000265685
0.000266383
0.000267096
0.000267827
0.000268566
0.00026927
0.000269902
0.000270412
0.000270737
0.000270825
0.000270626
0.000270113
0.000269285
0.000268163
0.000266802
0.000265274
0.000263653
0.00026201
0.000260401
0.000258872
0.000281935
0.000278084
0.000276556
0.000275971
0.000275761
0.000275699
0.000275699
0.000275731
0.000275788
0.000275871
0.000275987
0.000276139
0.000276333
0.000276576
0.00027687
0.000277218
0.000277624
0.000278087
0.000278652
0.000279384
0.000280142
0.000280927
0.000281734
0.000282561
0.000283396
0.000284196
0.000284922
0.000285519
0.000285921
0.000286069
0.000285906
0.000285398
0.000284533
0.000283333
0.000281849
0.000280159
0.000278348
0.000276499
0.000274685
0.000272961
0.000294991
0.00029081
0.000289138
0.000288501
0.000288286
0.000288247
0.000288285
0.000288366
0.000288479
0.000288625
0.000288807
0.000289031
0.000289301
0.000289621
0.000289995
0.000290426
0.000290916
0.000291465
0.000292183
0.000292982
0.000293818
0.000294685
0.00029558
0.000296497
0.000297422
0.000298314
0.000299129
0.000299812
0.000300294
0.000300509
0.000300394
0.000299907
0.000299027
0.000297767
0.000296176
0.000294334
0.000292334
0.000290276
0.000288245
0.000286397
0.000307258
0.000302814
0.000301018
0.000300333
0.000300114
0.000300095
0.000300168
0.000300295
0.000300462
0.000300667
0.000300914
0.000301205
0.000301545
0.000301938
0.000302387
0.000302894
0.000303461
0.000304106
0.000304938
0.000305805
0.000306712
0.000307656
0.000308632
0.000309633
0.000310639
0.000311614
0.000312513
0.000313276
0.000313837
0.000314123
0.000314069
0.000313619
0.000312745
0.000311451
0.000309777
0.000307801
0.000305624
0.000303356
0.000301101
0.000299126
0.000318751
0.000314113
0.000312217
0.000311491
0.000311266
0.000311264
0.00031137
0.000311538
0.000311754
0.000312014
0.00031232
0.000312673
0.000313077
0.000313535
0.000314051
0.000314626
0.000315262
0.000316049
0.000316932
0.000317861
0.000318835
0.000319851
0.0003209
0.000321973
0.000323051
0.000324097
0.000325067
0.000325903
0.000326537
0.000326897
0.000326911
0.000326516
0.000325673
0.000324372
0.000322645
0.000320562
0.000318228
0.000315761
0.000313375
0.000311163
0.000329488
0.000324726
0.000322755
0.000321994
0.000321764
0.000321775
0.000321908
0.000322114
0.000322373
0.000322682
0.000323039
0.000323447
0.000323907
0.000324424
0.000325
0.000325635
0.000326339
0.000327243
0.000328183
0.000329171
0.000330207
0.000331286
0.000332398
0.000333532
0.000334666
0.000335768
0.000336794
0.000337689
0.000338388
0.000338818
0.000338906
0.000338582
0.000337794
0.00033652
0.000334775
0.00033262
0.000330157
0.000327511
0.000324982
0.000322539
0.000339489
0.000334669
0.000332649
0.000331862
0.000331626
0.000331648
0.000331803
0.000332039
0.000332336
0.000332686
0.000333088
0.000333543
0.000334054
0.000334622
0.000335249
0.000335939
0.000336781
0.000337725
0.000338718
0.000339762
0.000340854
0.000341986
0.000343148
0.000344326
0.000345499
0.000346637
0.000347699
0.000348636
0.000349386
0.000349881
0.000350045
0.000349804
0.000349096
0.000347882
0.00034616
0.000343975
0.00034142
0.000338629
0.000335946
0.000333288
0.000348777
0.000343962
0.000341916
0.000341111
0.00034087
0.000340899
0.000341072
0.000341333
0.000341661
0.000342045
0.000342486
0.000342982
0.000343535
0.000344148
0.000344823
0.000345581
0.000346533
0.000347528
0.000348572
0.000349666
0.000350804
0.000351976
0.000353171
0.000354373
0.000355564
0.000356715
0.000357792
0.00035875
0.000359536
0.000360085
0.000360324
0.000360176
0.00035957
0.00035845
0.000356795
0.000354628
0.000352027
0.000349216
0.000346327
0.000343451
0.000357375
0.00035262
0.000350573
0.000349757
0.000349512
0.000349547
0.000349733
0.000350014
0.000350366
0.000350779
0.000351252
0.000351783
0.000352375
0.00035303
0.00035375
0.000354653
0.000355645
0.000356688
0.00035778
0.000358915
0.000360086
0.000361282
0.000362489
0.000363694
0.000364878
0.000366019
0.000367087
0.000368046
0.00036885
0.00036944
0.00036975
0.000369702
0.000369216
0.000368223
0.000366676
0.000364577
0.000361983
0.000359164
0.000356133
0.000353061
0.000365312
0.000360664
0.000358635
0.000357816
0.000357569
0.000357607
0.000357803
0.000358099
0.000358471
0.000358909
0.000359411
0.000359975
0.000360603
0.000361299
0.00036213
0.000363115
0.000364155
0.000365244
0.000366375
0.00036754
0.000368728
0.000369927
0.000371125
0.000372308
0.000373462
0.000374568
0.000375605
0.000376543
0.000377346
0.000377965
0.000378339
0.000378394
0.000378044
0.000377205
0.00037581
0.000373829
0.000371295
0.000368498
0.000365381
0.000362146
0.000372614
0.000368113
0.000366119
0.000365304
0.000365057
0.000365098
0.000365301
0.000365609
0.000365999
0.00036646
0.000366988
0.000367585
0.000368252
0.000369013
0.000369982
0.000371016
0.000372102
0.000373231
0.000374389
0.000375567
0.000376752
0.000377932
0.000379097
0.000380235
0.000381336
0.000382386
0.00038337
0.000384268
0.000385053
0.000385687
0.000386118
0.000386276
0.000386075
0.000385415
0.000384208
0.000382394
0.000380024
0.000377258
0.000374092
0.000370731
0.00037931
0.000374988
0.000373043
0.000372239
0.000371993
0.000372036
0.000372246
0.000372566
0.000372973
0.000373457
0.000374014
0.000374647
0.000375357
0.000376293
0.000377312
0.000378394
0.00037952
0.000380675
0.000381845
0.000383016
0.000384176
0.000385316
0.000386426
0.000387498
0.000388525
0.000389501
0.000390415
0.000391257
0.000392009
0.000392646
0.000393126
0.000393387
0.000393341
0.000392881
0.000391894
0.000390291
0.000388168
0.000385466
0.000382291
0.000378842
0.000385432
0.00038131
0.000379426
0.000378638
0.000378396
0.000378443
0.000378661
0.000378994
0.00037942
0.00037993
0.000380523
0.000381199
0.000382077
0.000383083
0.000384157
0.000385281
0.000386435
0.0003876
0.000388761
0.000389904
0.000391019
0.000392097
0.000393133
0.000394121
0.00039506
0.000395945
0.000396776
0.000397548
0.000398257
0.000398887
0.000399411
0.000399773
0.00039989
0.000399644
0.000398904
0.000397549
0.000395685
0.000393125
0.000389994
0.0003865
0.000391011
0.000387104
0.000385289
0.000384522
0.000384288
0.000384341
0.000384569
0.00038492
0.00038537
0.000385914
0.00038655
0.000387364
0.000388355
0.000389422
0.000390544
0.000391699
0.000392864
0.00039402
0.000395152
0.000396246
0.000397296
0.000398296
0.000399242
0.000400133
0.00040097
0.000401756
0.000402494
0.000403189
0.000403846
0.000404464
0.000405027
0.000405491
0.000405775
0.000405757
0.000405285
0.000404225
0.000402629
0.00040026
0.000397222
0.000393728
0.000396078
0.000392394
0.000390656
0.000389914
0.000389691
0.000389755
0.000389999
0.000390372
0.000390856
0.000391444
0.000392186
0.000393155
0.000394214
0.000395336
0.000396494
0.000397663
0.00039882
0.000399946
0.000401028
0.000402056
0.000403025
0.000403932
0.000404778
0.000405563
0.000406293
0.000406973
0.000407613
0.000408227
0.00040883
0.000409434
0.000410035
0.000410603
0.00041106
0.000411279
0.000411092
0.000410435
0.000409076
0.000406914
0.000404006
0.000400551
0.000400666
0.000397209
0.000395551
0.000394839
0.000394632
0.000394713
0.000394979
0.000395385
0.000395913
0.00039657
0.00039751
0.000398555
0.000399677
0.000400841
0.000402018
0.000403181
0.000404309
0.000405385
0.000406399
0.000407346
0.000408222
0.000409028
0.000409767
0.000410442
0.000411062
0.000411635
0.000412178
0.000412711
0.000413261
0.000413851
0.000414495
0.000415172
0.00041581
0.000416277
0.000416386
0.000416103
0.000415046
0.000413124
0.000410378
0.000406998
0.000404806
0.000401576
0.000400002
0.000399325
0.000399139
0.000399243
0.000399541
0.000399991
0.000400577
0.00040145
0.000402471
0.000403587
0.000404759
0.000405947
0.000407122
0.000408257
0.000409335
0.000410343
0.000411276
0.000412131
0.000412907
0.000413607
0.000414237
0.000414803
0.000415313
0.000415783
0.000416232
0.000416689
0.00041719
0.000417773
0.000418467
0.000419262
0.000420091
0.000420816
0.000421274
0.000421327
0.000420589
0.000418933
0.000416375
0.000413101
0.000408531
0.000405524
0.000404037
0.0004034
0.000403243
0.000403378
0.000403719
0.000404227
0.000404992
0.000405984
0.000407088
0.000408263
0.000409465
0.000410655
0.000411804
0.00041289
0.000413901
0.000414828
0.000415669
0.000416425
0.000417098
0.000417693
0.000418215
0.000418675
0.000419082
0.000419455
0.000419816
0.000420204
0.000420665
0.000421252
0.000422006
0.000422931
0.000423964
0.000424959
0.000425829
0.000426191
0.000425768
0.000424388
0.000422038
0.000418892
0.000411872
0.000409082
0.000407685
0.000407093
0.000406972
0.000407151
0.000407548
0.00040817
0.000409115
0.000410199
0.000411373
0.000412587
0.000413795
0.000414962
0.000416062
0.000417081
0.000418011
0.000418847
0.000419591
0.000420245
0.000420815
0.000421308
0.000421729
0.000422089
0.000422402
0.000422685
0.00042297
0.000423299
0.000423731
0.000424334
0.000425164
0.000426236
0.000427489
0.000428767
0.000430011
0.000430724
0.000430631
0.000429538
0.000427409
0.000424408
0.000414858
0.000412279
0.000410976
0.000410436
0.000410361
0.000410594
0.000411063
0.000411903
0.000412944
0.000414108
0.00041533
0.000416556
0.000417743
0.000418862
0.000419895
0.000420832
0.000421669
0.000422409
0.000423053
0.000423608
0.00042408
0.000424477
0.000424805
0.000425076
0.000425303
0.00042551
0.000425728
0.000426011
0.000426429
0.000427063
0.000427987
0.000429225
0.000430715
0.000432401
0.000433942
0.00043499
0.000435228
0.000434428
0.000432507
0.000429569
0.000417519
0.000415144
0.000413938
0.000413457
0.000413439
0.000413741
0.000414389
0.000415359
0.000416491
0.000417713
0.000418955
0.000420163
0.000421303
0.000422352
0.000423301
0.000424144
0.000424885
0.000425526
0.000426073
0.000426534
0.000426915
0.000427225
0.00042747
0.000427663
0.000427818
0.000427959
0.000428125
0.000428376
0.000428794
0.000429478
0.000430515
0.000431938
0.000433682
0.000435732
0.000437624
0.000439024
0.000439598
0.000439069
0.000437278
0.00043452
0.000419882
0.000417704
0.000416599
0.000416187
0.000416237
0.000416624
0.000417485
0.000418559
0.000419762
0.000421011
0.000422239
0.0004234
0.000424468
0.00042543
0.000426283
0.000427028
0.00042767
0.000428215
0.000428672
0.000429046
0.000429346
0.000429578
0.000429753
0.00042988
0.000429975
0.000430064
0.000430192
0.000430425
0.00043086
0.000431611
0.00043278
0.000434411
0.000436527
0.00043887
0.000441104
0.000442857
0.000443766
0.000443443
0.000441837
0.000439307
0.000421975
0.000419988
0.000418988
0.000418653
0.000418786
0.000419386
0.00042035
0.000421508
0.000422751
0.000423992
0.000425173
0.00042626
0.000427238
0.000428101
0.000428852
0.000429498
0.000430044
0.0004305
0.000430873
0.00043117
0.0004314
0.000431568
0.000431683
0.000431756
0.000431805
0.000431856
0.000431958
0.000432188
0.000432656
0.000433491
0.000434812
0.000436674
0.000439118
0.000441801
0.000444393
0.000446505
0.000447743
0.000447608
0.000446225
0.000443968
0.000423822
0.00042202
0.000421129
0.000420883
0.000421119
0.000421924
0.000422991
0.000424204
0.000425448
0.000426645
0.000427751
0.000428743
0.000429617
0.000430376
0.000431026
0.000431576
0.000432034
0.00043241
0.000432709
0.000432941
0.000433111
0.000433226
0.000433294
0.000433326
0.000433339
0.000433364
0.000433454
0.000433694
0.000434209
0.000435144
0.000436632
0.000438807
0.000441529
0.000444547
0.0004475
0.000450015
0.000451511
0.000451591
0.000450466
0.000448519
0.000425448
0.000423824
0.000423047
0.000422905
0.000423352
0.000424264
0.000425408
0.000426637
0.000427843
0.000428964
0.00042997
0.000430855
0.000431621
0.000432277
0.000432832
0.000433295
0.000433675
0.000433981
0.000434219
0.000434395
0.000434517
0.00043459
0.000434621
0.000434621
0.00043461
0.000434619
0.000434708
0.000434971
0.000435544
0.000436591
0.000438279
0.000440713
0.000443738
0.000447098
0.000450412
0.000453368
0.000455084
0.000455404
0.00045456
0.00045296
0.000426875
0.000425425
0.000424767
0.000424741
0.000425396
0.000426409
0.000427592
0.000428794
0.000429926
0.000430945
0.000431841
0.000432615
0.000433277
0.000433838
0.000434308
0.000434696
0.00043501
0.000435258
0.000435445
0.000435577
0.00043566
0.000435699
0.000435702
0.00043568
0.000435652
0.000435654
0.00043575
0.000436044
0.000436685
0.000437851
0.00043976
0.000442427
0.000445747
0.000449443
0.000453152
0.000456485
0.000458457
0.000459043
0.000458495
0.000457259
0.000428123
0.000426841
0.000426312
0.000426483
0.00042727
0.000428353
0.000429529
0.000430665
0.000431695
0.000432601
0.000433383
0.000434053
0.000434622
0.000435101
0.0004355
0.000435827
0.000436089
0.00043629
0.000436436
0.000436532
0.000436584
0.000436596
0.000436576
0.000436537
0.000436498
0.0004365
0.00043661
0.000436941
0.000437654
0.00043897
0.000441049
0.000443945
0.000447548
0.000451561
0.00045566
0.000459325
0.000461604
0.000462497
0.000462263
0.00046138
2.03398e-05
2.02995e-05
2.02626e-05
2.02309e-05
2.02062e-05
2.01855e-05
2.01689e-05
2.01565e-05
2.01482e-05
2.01441e-05
2.01441e-05
2.01482e-05
2.01565e-05
2.01689e-05
2.01855e-05
2.02062e-05
2.02309e-05
2.02626e-05
2.02995e-05
2.03398e-05
4.06362e-05
4.05448e-05
4.04599e-05
4.03823e-05
4.0323e-05
4.02767e-05
4.02383e-05
4.02084e-05
4.01874e-05
4.01748e-05
4.01748e-05
4.01874e-05
4.02084e-05
4.02383e-05
4.02767e-05
4.03231e-05
4.03823e-05
4.046e-05
4.05448e-05
4.06363e-05
6.08394e-05
6.06841e-05
6.0539e-05
6.04042e-05
6.02798e-05
6.01958e-05
6.01245e-05
6.00676e-05
6.00269e-05
6.0004e-05
6.0004e-05
6.00269e-05
6.00676e-05
6.01245e-05
6.01958e-05
6.02798e-05
6.04043e-05
6.05391e-05
6.06842e-05
6.08395e-05
8.08983e-05
8.06675e-05
8.04499e-05
8.02447e-05
8.00525e-05
7.98911e-05
7.97733e-05
7.96774e-05
7.9608e-05
7.95691e-05
7.95692e-05
7.9608e-05
7.96774e-05
7.97733e-05
7.98912e-05
8.00526e-05
8.02448e-05
8.045e-05
8.06677e-05
8.08985e-05
0.00010075
0.000100434
0.000100133
9.98472e-05
9.95765e-05
9.93179e-05
9.91374e-05
9.89916e-05
9.8885e-05
9.88251e-05
9.88251e-05
9.8885e-05
9.89917e-05
9.91375e-05
9.93181e-05
9.95767e-05
9.98474e-05
0.000100133
0.000100434
0.000100751
0.000120322
0.000119912
0.000119521
0.000119146
0.00011879
0.00011845
0.00011817
0.000117966
0.000117815
0.000117731
0.000117731
0.000117816
0.000117966
0.00011817
0.00011845
0.00011879
0.000119147
0.000119521
0.000119913
0.000120322
0.000139531
0.000139023
0.000138537
0.00013807
0.000137624
0.000137199
0.00013682
0.000136552
0.000136354
0.000136243
0.000136243
0.000136354
0.000136552
0.000136821
0.0001372
0.000137624
0.000138071
0.000138538
0.000139024
0.000139532
0.000158293
0.000157684
0.000157102
0.000156542
0.000156005
0.000155497
0.000155031
0.000154695
0.000154448
0.000154309
0.000154309
0.000154448
0.000154695
0.000155031
0.000155497
0.000156006
0.000156542
0.000157102
0.000157685
0.000158294
0.000176522
0.00017581
0.000175132
0.000174482
0.000173859
0.000173269
0.00017274
0.000172337
0.000172041
0.000171875
0.000171875
0.000172041
0.000172338
0.00017274
0.00017327
0.00017386
0.000174483
0.000175133
0.000175811
0.000176523
0.000194142
0.000193326
0.000192554
0.000191817
0.000191112
0.000190446
0.000189883
0.000189417
0.000189073
0.00018888
0.00018888
0.000189073
0.000189417
0.000189883
0.000190447
0.000191113
0.000191817
0.000192555
0.000193327
0.000194143
0.000211087
0.000210164
0.000209298
0.000208477
0.000207697
0.00020701
0.000206397
0.000205872
0.000205483
0.000205265
0.000205265
0.000205483
0.000205872
0.000206398
0.00020701
0.000207698
0.000208478
0.000209299
0.000210165
0.000211089
0.000227307
0.00022627
0.000225309
0.000224409
0.000223632
0.000222901
0.000222225
0.000221645
0.000221214
0.000220972
0.000220972
0.000221215
0.000221646
0.000222226
0.000222901
0.000223633
0.00022441
0.00022531
0.000226271
0.000227308
0.000242767
0.000241609
0.0002406
0.000239699
0.000238847
0.00023805
0.000237317
0.000236687
0.000236218
0.000235953
0.000235954
0.000236218
0.000236688
0.000237317
0.00023805
0.000238848
0.0002397
0.000240601
0.00024161
0.000242768
0.000257453
0.000256263
0.000255189
0.000254202
0.000253279
0.000252419
0.000251634
0.00025096
0.000250456
0.00025017
0.00025017
0.000250456
0.00025096
0.000251635
0.00025242
0.000253279
0.000254203
0.00025519
0.000256265
0.000257455
0.000271488
0.000270168
0.000268978
0.0002679
0.000266905
0.000265987
0.000265154
0.000264439
0.000263903
0.000263597
0.000263597
0.000263903
0.00026444
0.000265154
0.000265987
0.000266905
0.000267901
0.00026898
0.00027017
0.00027149
0.000284765
0.000283289
0.000281971
0.000280793
0.000279723
0.000278747
0.000277869
0.000277118
0.000276552
0.000276228
0.000276228
0.000276553
0.000277119
0.00027787
0.000278748
0.000279724
0.000280794
0.000281973
0.000283291
0.000284767
0.000297297
0.000295648
0.000294187
0.000292898
0.000291748
0.000290714
0.000289792
0.000289007
0.000288413
0.000288071
0.000288071
0.000288414
0.000289007
0.000289793
0.000290715
0.000291749
0.000292899
0.000294188
0.00029565
0.000297299
0.000309118
0.000307278
0.000305659
0.000304247
0.000303009
0.000301914
0.000300949
0.000300131
0.000299512
0.000299151
0.000299152
0.000299512
0.000300132
0.00030095
0.000301915
0.00030301
0.000304248
0.00030566
0.00030728
0.00030912
0.000320267
0.000318221
0.000316429
0.000314883
0.000313549
0.000312388
0.000311379
0.00031053
0.000309886
0.000309509
0.000309509
0.000309887
0.000310531
0.00031138
0.000312389
0.00031355
0.000314884
0.00031643
0.000318223
0.000320269
0.000330785
0.000328524
0.000326547
0.000324856
0.000323418
0.000322188
0.000321134
0.000320254
0.000319588
0.000319194
0.000319194
0.000319588
0.000320255
0.000321134
0.000322188
0.000323419
0.000324857
0.000326549
0.000328526
0.000330788
0.000340718
0.000338236
0.000336065
0.00033422
0.000332672
0.000331368
0.000330269
0.000329361
0.000328674
0.000328264
0.000328264
0.000328674
0.000329362
0.00033027
0.000331369
0.000332672
0.000334222
0.000336067
0.000338238
0.000340721
0.000350107
0.000347403
0.000345036
0.000343032
0.000341368
0.000339991
0.000338847
0.000337913
0.000337208
0.000336785
0.000336785
0.000337208
0.000337914
0.000338848
0.000339992
0.000341369
0.000343033
0.000345037
0.000347405
0.000350109
0.000358988
0.000356072
0.000353509
0.000351346
0.000349568
0.000348117
0.000346931
0.000345975
0.000345256
0.000344821
0.000344822
0.000345256
0.000345976
0.000346932
0.000348117
0.000349569
0.000351348
0.000353511
0.000356074
0.00035899
0.000367395
0.000364282
0.000361533
0.000359216
0.000357326
0.000355806
0.000354584
0.000353612
0.000352884
0.000352441
0.000352442
0.000352884
0.000353612
0.000354585
0.000355807
0.000357327
0.000359218
0.000361535
0.000364284
0.000367397
0.000375358
0.00037207
0.00036915
0.000366691
0.000364699
0.000363118
0.000361868
0.000360887
0.000360157
0.000359711
0.000359711
0.000360157
0.000360887
0.000361868
0.000363118
0.0003647
0.000366692
0.000369152
0.000372072
0.00037536
0.000382905
0.000379469
0.000376401
0.000373816
0.000371737
0.000370108
0.000368842
0.000367862
0.000367139
0.000366695
0.000366695
0.000367139
0.000367862
0.000368842
0.000370108
0.000371737
0.000373817
0.000376402
0.00037947
0.000382905
0.000390059
0.000386509
0.000383319
0.000380634
0.000378488
0.000376829
0.000375562
0.000374596
0.000373889
0.000373452
0.000373453
0.000373889
0.000374596
0.000375562
0.00037683
0.000378489
0.000380635
0.00038332
0.00038651
0.00039006
0.000396848
0.000393218
0.000389939
0.000387182
0.000384997
0.000383331
0.000382081
0.000381144
0.000380463
0.000380041
0.000380042
0.000380464
0.000381145
0.000382082
0.000383332
0.000384998
0.000387183
0.00038994
0.000393219
0.000396847
0.000403296
0.000399623
0.000396292
0.000393499
0.000391306
0.000389662
0.00038845
0.000387558
0.000386914
0.000386514
0.000386514
0.000386915
0.000387558
0.00038845
0.000389662
0.000391307
0.0003935
0.000396293
0.000399623
0.000403295
0.000409432
0.000405752
0.000402408
0.000399619
0.000397456
0.00039586
0.000394714
0.000393885
0.00039329
0.000392917
0.000392917
0.00039329
0.000393885
0.000394714
0.00039586
0.000397457
0.00039962
0.000402409
0.000405752
0.000409431
0.000415286
0.000411634
0.00040829
0.000405567
0.000403491
0.000401985
0.000400925
0.000400171
0.000399634
0.000399291
0.000399291
0.000399634
0.000400171
0.000400925
0.000401986
0.000403492
0.000405567
0.00040829
0.000411634
0.000415284
0.000420825
0.000417248
0.000414027
0.000411424
0.000409469
0.000408078
0.000407119
0.000406451
0.000405979
0.000405671
0.000405671
0.000405979
0.000406452
0.000407119
0.000408078
0.000409469
0.000411425
0.000414027
0.000417247
0.000420823
0.000426135
0.000422717
0.000419668
0.000417226
0.000415421
0.000414166
0.000413326
0.000412755
0.000412354
0.000412085
0.000412085
0.000412354
0.000412755
0.000413326
0.000414167
0.000415422
0.000417226
0.000419668
0.000422716
0.000426133
0.000431291
0.000428083
0.000425247
0.000423001
0.000421375
0.000420278
0.00041957
0.000419106
0.000418783
0.000418556
0.000418556
0.000418783
0.000419106
0.00041957
0.000420278
0.000421375
0.000423001
0.000425246
0.000428081
0.000431288
0.000436332
0.000433377
0.000430789
0.000428773
0.000427351
0.000426432
0.000425871
0.000425523
0.000425283
0.000425103
0.000425103
0.000425283
0.000425523
0.000425871
0.000426432
0.000427351
0.000428772
0.000430789
0.000433375
0.000436329
0.000441288
0.000438623
0.000436315
0.000434557
0.000433368
0.000432647
0.000432247
0.000432024
0.000431873
0.000431743
0.000431743
0.000431873
0.000432024
0.000432247
0.000432647
0.000433368
0.000434557
0.000436314
0.000438621
0.000441286
0.000446176
0.000443832
0.000441835
0.000440371
0.000439445
0.000438944
0.000438718
0.000438625
0.000438566
0.000438487
0.000438487
0.000438566
0.000438625
0.000438718
0.000438944
0.000439445
0.000440371
0.000441834
0.00044383
0.000446173
0.000450996
0.000449007
0.000447362
0.000446236
0.000445607
0.000445347
0.000445303
0.000445343
0.000445374
0.000445346
0.000445346
0.000445374
0.000445343
0.000445303
0.000445347
0.000445607
0.000446235
0.000447361
0.000449005
0.000450993
0.000455736
0.000454147
0.000452917
0.000452189
0.000451893
0.000451886
0.000452023
0.000452189
0.000452303
0.000452322
0.000452322
0.000452303
0.000452189
0.000452023
0.000451886
0.000451893
0.000452188
0.000452915
0.000454145
0.000455734
0.000460429
0.000459281
0.000458566
0.000458295
0.000458341
0.000458572
0.000458871
0.000459145
0.00045933
0.000459395
0.000459395
0.00045933
0.000459145
0.000458871
0.000458572
0.000458341
0.000458295
0.000458565
0.000459279
0.000460427
2.03828e-05
2.04292e-05
2.04799e-05
2.05328e-05
2.05882e-05
2.06464e-05
2.07056e-05
2.07655e-05
2.08254e-05
2.08848e-05
2.09433e-05
2.10009e-05
2.10578e-05
2.11141e-05
2.11702e-05
2.12264e-05
2.12827e-05
2.13441e-05
2.14065e-05
2.14679e-05
2.15279e-05
2.15864e-05
2.16432e-05
2.1698e-05
2.17507e-05
2.1801e-05
2.18489e-05
2.18942e-05
2.19366e-05
2.19762e-05
2.20127e-05
2.20461e-05
2.20762e-05
2.21029e-05
2.21263e-05
2.21585e-05
2.22037e-05
2.22589e-05
2.22561e-05
2.21941e-05
4.07336e-05
4.0838e-05
4.09487e-05
4.10633e-05
4.11821e-05
4.13044e-05
4.14273e-05
4.15491e-05
4.16676e-05
4.17814e-05
4.18898e-05
4.19929e-05
4.20915e-05
4.21871e-05
4.22814e-05
4.2376e-05
4.24722e-05
4.25819e-05
4.27002e-05
4.28176e-05
4.29331e-05
4.30464e-05
4.3157e-05
4.32645e-05
4.33684e-05
4.34683e-05