/*--------------------------------*- C++ -*----------------------------------*\
  =========                 |
  \\      /  F ield         | OpenFOAM: The Open Source CFD Toolbox
   \\    /   O peration     | Website:  https://openfoam.org
    \\  /    A nd           | Version:  6
     \\/     M anipulation  |
\*---------------------------------------------------------------------------*/
FoamFile
{
    version     2.0;
    format      ascii;
    class       volScalarField;
    location    "10";
    object      p;
}
// * * * * * * * * * * * * * * * * * * * * * * * * * * * * * * * * * * * * * //

dimensions      [0 2 -2 0 0 0 0];

internalField   nonuniform List<scalar> 
8800
(
1.05211e-09
3.92241e-07
6.20323e-07
7.10913e-07
7.45053e-07
7.56047e-07
7.55286e-07
7.47117e-07
7.34142e-07
7.17896e-07
6.99344e-07
6.79184e-07
6.57995e-07
6.36314e-07
6.14658e-07
5.93509e-07
5.73317e-07
5.54475e-07
5.37288e-07
5.2193e-07
5.08425e-07
4.96623e-07
4.86258e-07
4.77071e-07
4.6798e-07
4.56617e-07
4.40931e-07
4.18827e-07
3.88287e-07
3.47674e-07
2.96028e-07
2.33214e-07
1.59948e-07
7.7769e-08
-1.11413e-08
-1.04084e-07
-1.98235e-07
-2.92164e-07
-3.83937e-07
-4.71776e-07
-1.90723e-05
-1.92919e-05
-1.93867e-05
-1.94227e-05
-1.94514e-05
-1.94829e-05
-1.95189e-05
-1.95603e-05
-1.96071e-05
-1.96589e-05
-1.97151e-05
-1.9775e-05
-1.98379e-05
-1.99032e-05
-1.997e-05
-2.00378e-05
-2.01057e-05
-2.01729e-05
-2.0239e-05
-2.03032e-05
-2.03651e-05
-2.04244e-05
-2.04809e-05
-2.05354e-05
-2.05885e-05
-2.06409e-05
-2.06939e-05
-2.07491e-05
-2.08081e-05
-2.08726e-05
-2.09437e-05
-2.1022e-05
-2.11075e-05
-2.11996e-05
-2.12972e-05
-2.13991e-05
-2.15044e-05
-2.16114e-05
-2.17191e-05
-2.18265e-05
-3.46125e-05
-3.4698e-05
-3.47465e-05
-3.4778e-05
-3.4813e-05
-3.48545e-05
-3.49029e-05
-3.49576e-05
-3.50187e-05
-3.50857e-05
-3.51582e-05
-3.52358e-05
-3.53179e-05
-3.54037e-05
-3.54926e-05
-3.55838e-05
-3.56767e-05
-3.57706e-05
-3.58648e-05
-3.59587e-05
-3.60521e-05
-3.61446e-05
-3.62363e-05
-3.63281e-05
-3.64202e-05
-3.65128e-05
-3.66067e-05
-3.67028e-05
-3.68023e-05
-3.69061e-05
-3.70149e-05
-3.7129e-05
-3.7248e-05
-3.73712e-05
-3.74973e-05
-3.7625e-05
-3.77527e-05
-3.78787e-05
-3.80012e-05
-3.81187e-05
-4.79298e-05
-4.79433e-05
-4.79602e-05
-4.7989e-05
-4.80299e-05
-4.80811e-05
-4.81415e-05
-4.82107e-05
-4.82881e-05
-4.83735e-05
-4.84663e-05
-4.85659e-05
-4.86717e-05
-4.87831e-05
-4.88993e-05
-4.90196e-05
-4.9143e-05
-4.92689e-05
-4.93964e-05
-4.9525e-05
-4.96539e-05
-4.97828e-05
-4.99114e-05
-5.00391e-05
-5.01659e-05
-5.02921e-05
-5.04182e-05
-5.05451e-05
-5.06735e-05
-5.08044e-05
-5.09382e-05
-5.10753e-05
-5.12156e-05
-5.13584e-05
-5.15027e-05
-5.16471e-05
-5.17903e-05
-5.19306e-05
-5.20664e-05
-5.21963e-05
-6.01947e-05
-6.02215e-05
-6.02522e-05
-6.02932e-05
-6.03466e-05
-6.04117e-05
-6.04878e-05
-6.05745e-05
-6.06715e-05
-6.07782e-05
-6.08941e-05
-6.10186e-05
-6.11508e-05
-6.129e-05
-6.14355e-05
-6.15861e-05
-6.17411e-05
-6.18995e-05
-6.20603e-05
-6.22226e-05
-6.23856e-05
-6.25487e-05
-6.27108e-05
-6.28706e-05
-6.30277e-05
-6.31824e-05
-6.33351e-05
-6.34867e-05
-6.36378e-05
-6.37895e-05
-6.39424e-05
-6.4097e-05
-6.42536e-05
-6.44116e-05
-6.45704e-05
-6.47286e-05
-6.4885e-05
-6.50379e-05
-6.51859e-05
-6.53275e-05
-7.14574e-05
-7.14993e-05
-7.15416e-05
-7.15922e-05
-7.1656e-05
-7.17331e-05
-7.18232e-05
-7.19258e-05
-7.20405e-05
-7.21667e-05
-7.23036e-05
-7.24506e-05
-7.26068e-05
-7.27713e-05
-7.29431e-05
-7.31212e-05
-7.33045e-05
-7.34918e-05
-7.3682e-05
-7.38741e-05
-7.40672e-05
-7.42602e-05
-7.44516e-05
-7.46396e-05
-7.48236e-05
-7.50038e-05
-7.51806e-05
-7.53544e-05
-7.55262e-05
-7.5697e-05
-7.58677e-05
-7.60391e-05
-7.62117e-05
-7.63852e-05
-7.65589e-05
-7.67319e-05
-7.69026e-05
-7.70695e-05
-7.72309e-05
-7.73852e-05
-8.17353e-05
-8.17818e-05
-8.18292e-05
-8.18865e-05
-8.19591e-05
-8.2047e-05
-8.21499e-05
-8.22673e-05
-8.23986e-05
-8.2543e-05
-8.26997e-05
-8.28679e-05
-8.30466e-05
-8.32348e-05
-8.34312e-05
-8.36348e-05
-8.38442e-05
-8.40582e-05
-8.42755e-05
-8.44949e-05
-8.47153e-05
-8.49352e-05
-8.51522e-05
-8.53646e-05
-8.5572e-05
-8.57742e-05
-8.59713e-05
-8.61641e-05
-8.63532e-05
-8.654e-05
-8.67256e-05
-8.69111e-05
-8.70973e-05
-8.72842e-05
-8.74713e-05
-8.76576e-05
-8.78416e-05
-8.80216e-05
-8.81958e-05
-8.83624e-05
-9.1106e-05
-9.11538e-05
-9.12047e-05
-9.1268e-05
-9.13487e-05
-9.14468e-05
-9.15618e-05
-9.1693e-05
-9.18398e-05
-9.20013e-05
-9.21765e-05
-9.23644e-05
-9.25639e-05
-9.27738e-05
-9.29928e-05
-9.32195e-05
-9.34526e-05
-9.36905e-05
-9.39319e-05
-9.41754e-05
-9.44198e-05
-9.46626e-05
-9.49009e-05
-9.51338e-05
-9.53606e-05
-9.55809e-05
-9.57948e-05
-9.60028e-05
-9.62059e-05
-9.64054e-05
-9.66029e-05
-9.67996e-05
-9.69969e-05
-9.71949e-05
-9.73933e-05
-9.75911e-05
-9.77868e-05
-9.79786e-05
-9.81645e-05
-9.83425e-05
-9.96457e-05
-9.96937e-05
-9.97475e-05
-9.98161e-05
-9.99041e-05
-0.000100011
-0.000100137
-0.000100281
-0.000100441
-0.000100618
-0.000100809
-0.000101015
-0.000101233
-0.000101461
-0.0001017
-0.000101947
-0.0001022
-0.000102458
-0.00010272
-0.000102984
-0.000103248
-0.000103509
-0.000103765
-0.000104014
-0.000104256
-0.000104491
-0.000104718
-0.000104939
-0.000105153
-0.000105362
-0.000105569
-0.000105775
-0.000105981
-0.000106188
-0.000106396
-0.000106604
-0.000106809
-0.000107012
-0.000107208
-0.000107396
-0.000107421
-0.000107468
-0.000107524
-0.000107597
-0.000107691
-0.000107806
-0.000107941
-0.000108095
-0.000108267
-0.000108456
-0.000108662
-0.000108882
-0.000109115
-0.00010936
-0.000109614
-0.000109878
-0.000110147
-0.000110422
-0.0001107
-0.00011098
-0.00011126
-0.000111534
-0.000111803
-0.000112065
-0.00011232
-0.000112566
-0.000112804
-0.000113033
-0.000113256
-0.000113473
-0.000113687
-0.0001139
-0.000114113
-0.000114327
-0.000114542
-0.000114758
-0.000114973
-0.000115184
-0.000115389
-0.000115587
-0.000114493
-0.000114537
-0.000114594
-0.000114671
-0.000114769
-0.00011489
-0.000115033
-0.000115195
-0.000115377
-0.000115577
-0.000115793
-0.000116025
-0.00011627
-0.000116527
-0.000116794
-0.00011707
-0.000117353
-0.00011764
-0.000117931
-0.000118223
-0.000118513
-0.000118797
-0.000119076
-0.000119347
-0.000119611
-0.000119865
-0.00012011
-0.000120346
-0.000120575
-0.000120799
-0.000121018
-0.000121236
-0.000121454
-0.000121673
-0.000121894
-0.000122117
-0.000122338
-0.000122557
-0.000122769
-0.000122974
-0.000120917
-0.000120958
-0.000121015
-0.000121094
-0.000121196
-0.000121322
-0.000121469
-0.000121638
-0.000121827
-0.000122034
-0.000122259
-0.000122499
-0.000122753
-0.000123019
-0.000123295
-0.00012358
-0.000123872
-0.000124168
-0.000124467
-0.000124767
-0.000125063
-0.000125353
-0.000125639
-0.000125917
-0.000126186
-0.000126445
-0.000126696
-0.000126938
-0.00012717
-0.000127397
-0.000127619
-0.00012784
-0.000128061
-0.000128285
-0.000128511
-0.000128738
-0.000128965
-0.000129189
-0.000129407
-0.000129615
-0.000126745
-0.000126782
-0.000126838
-0.000126918
-0.000127023
-0.000127151
-0.000127302
-0.000127475
-0.000127668
-0.00012788
-0.00012811
-0.000128356
-0.000128615
-0.000128887
-0.000129169
-0.000129459
-0.000129756
-0.000130057
-0.000130361
-0.000130665
-0.000130964
-0.000131258
-0.000131546
-0.000131828
-0.000132101
-0.000132364
-0.000132617
-0.000132861
-0.000133095
-0.000133322
-0.000133546
-0.000133769
-0.000133992
-0.000134219
-0.000134448
-0.000134679
-0.00013491
-0.000135136
-0.000135356
-0.000135565
-0.000132023
-0.000132056
-0.000132111
-0.000132191
-0.000132297
-0.000132426
-0.000132579
-0.000132753
-0.000132949
-0.000133163
-0.000133395
-0.000133643
-0.000133905
-0.000134179
-0.000134464
-0.000134756
-0.000135055
-0.000135358
-0.000135664
-0.000135967
-0.000136267
-0.000136563
-0.000136853
-0.000137135
-0.000137409
-0.000137672
-0.000137925
-0.000138167
-0.000138401
-0.000138628
-0.000138851
-0.000139074
-0.000139299
-0.000139528
-0.000139759
-0.000139992
-0.000140223
-0.000140449
-0.000140668
-0.000140875
-0.000136796
-0.000136825
-0.000136878
-0.000136957
-0.000137062
-0.000137191
-0.000137344
-0.000137518
-0.000137713
-0.000137928
-0.000138159
-0.000138407
-0.000138668
-0.000138942
-0.000139226
-0.000139518
-0.000139817
-0.000140119
-0.000140423
-0.000140724
-0.000141023
-0.000141318
-0.000141606
-0.000141887
-0.000142158
-0.000142419
-0.000142669
-0.000142908
-0.000143138
-0.000143363
-0.000143585
-0.000143807
-0.000144032
-0.00014426
-0.000144492
-0.000144724
-0.000144954
-0.000145176
-0.000145389
-0.000145589
-0.000141104
-0.000141129
-0.00014118
-0.000141257
-0.00014136
-0.000141488
-0.000141638
-0.000141811
-0.000142004
-0.000142216
-0.000142445
-0.00014269
-0.000142949
-0.000143219
-0.0001435
-0.00014379
-0.000144085
-0.000144385
-0.000144685
-0.000144982
-0.000145277
-0.000145568
-0.000145853
-0.000146129
-0.000146396
-0.000146651
-0.000146895
-0.000147129
-0.000147355
-0.000147575
-0.000147793
-0.000148012
-0.000148235
-0.000148463
-0.000148692
-0.000148921
-0.000149145
-0.00014936
-0.000149562
-0.000149745
-0.000144986
-0.000145007
-0.000145055
-0.00014513
-0.00014523
-0.000145355
-0.000145502
-0.000145671
-0.00014586
-0.000146067
-0.000146292
-0.000146532
-0.000146786
-0.000147052
-0.000147328
-0.000147613
-0.000147903
-0.000148197
-0.000148491
-0.000148783
-0.000149072
-0.000149358
-0.000149636
-0.000149906
-0.000150165
-0.000150413
-0.00015065
-0.000150876
-0.000151094
-0.000151308
-0.00015152
-0.000151735
-0.000151954
-0.000152177
-0.000152402
-0.000152624
-0.000152838
-0.000153039
-0.000153223
-0.000153378
-0.000148476
-0.000148493
-0.000148539
-0.000148611
-0.000148708
-0.000148828
-0.000148971
-0.000149135
-0.000149318
-0.00014952
-0.000149738
-0.000149972
-0.00015022
-0.000150479
-0.000150748
-0.000151025
-0.000151309
-0.000151595
-0.000151881
-0.000152167
-0.000152449
-0.000152727
-0.000152997
-0.000153258
-0.000153508
-0.000153746
-0.000153973
-0.000154189
-0.000154398
-0.000154603
-0.000154807
-0.000155015
-0.000155228
-0.000155444
-0.00015566
-0.00015587
-0.000156068
-0.000156248
-0.000156402
-0.000156521
-0.000151608
-0.000151622
-0.000151665
-0.000151734
-0.000151827
-0.000151942
-0.000152079
-0.000152237
-0.000152413
-0.000152608
-0.000152819
-0.000153045
-0.000153284
-0.000153535
-0.000153795
-0.000154065
-0.000154339
-0.000154617
-0.000154894
-0.000155171
-0.000155444
-0.000155712
-0.000155972
-0.000156222
-0.000156461
-0.000156687
-0.000156902
-0.000157106
-0.000157304
-0.000157498
-0.000157693
-0.000157891
-0.000158094
-0.000158299
-0.000158501
-0.000158693
-0.000158867
-0.000159015
-0.000159128
-0.000159201
-0.000154412
-0.000154424
-0.000154465
-0.00015453
-0.000154619
-0.000154728
-0.000154859
-0.000155009
-0.000155178
-0.000155364
-0.000155566
-0.000155782
-0.000156012
-0.000156253
-0.000156505
-0.000156764
-0.000157029
-0.000157296
-0.000157563
-0.00015783
-0.000158092
-0.000158349
-0.000158596
-0.000158833
-0.000159059
-0.000159271
-0.000159472
-0.000159663
-0.000159847
-0.000160029
-0.000160211
-0.000160397
-0.000160587
-0.000160776
-0.000160958
-0.000161123
-0.000161262
-0.000161367
-0.000161424
-0.000161438
-0.000156918
-0.000156929
-0.000156967
-0.000157029
-0.000157112
-0.000157216
-0.000157339
-0.000157482
-0.000157641
-0.000157818
-0.00015801
-0.000158216
-0.000158435
-0.000158665
-0.000158906
-0.000159154
-0.000159408
-0.000159663
-0.000159919
-0.000160174
-0.000160424
-0.000160667
-0.0001609
-0.000161123
-0.000161333
-0.00016153
-0.000161716
-0.000161891
-0.000162061
-0.000162228
-0.000162395
-0.000162566
-0.000162738
-0.000162905
-0.000163058
-0.000163185
-0.000163276
-0.00016332
-0.000163305
-0.000163244
-0.000159152
-0.000159162
-0.000159198
-0.000159256
-0.000159334
-0.000159432
-0.000159548
-0.000159681
-0.000159831
-0.000159997
-0.000160178
-0.000160373
-0.00016058
-0.000160799
-0.000161028
-0.000161264
-0.000161504
-0.000161747
-0.00016199
-0.000162231
-0.000162467
-0.000162695
-0.000162913
-0.000163119
-0.000163313
-0.000163493
-0.000163662
-0.000163821
-0.000163974
-0.000164125
-0.000164275
-0.000164427
-0.000164575
-0.000164711
-0.000164824
-0.000164899
-0.000164924
-0.000164886
-0.000164781
-0.000164625
-0.00016114
-0.000161149
-0.000161182
-0.000161237
-0.00016131
-0.000161401
-0.000161509
-0.000161633
-0.000161773
-0.000161928
-0.000162097
-0.00016228
-0.000162475
-0.000162681
-0.000162896
-0.000163118
-0.000163345
-0.000163574
-0.000163802
-0.000164027
-0.000164247
-0.000164459
-0.00016466
-0.000164849
-0.000165024
-0.000165187
-0.000165338
-0.000165479
-0.000165614
-0.000165747
-0.000165877
-0.000166004
-0.000166122
-0.000166217
-0.000166275
-0.00016628
-0.000166217
-0.000166073
-0.000165852
-0.000165576
-0.000162905
-0.000162913
-0.000162945
-0.000162996
-0.000163064
-0.000163147
-0.000163247
-0.000163362
-0.000163491
-0.000163634
-0.00016379
-0.000163959
-0.000164141
-0.000164332
-0.000164533
-0.000164741
-0.000164952
-0.000165165
-0.000165377
-0.000165586
-0.000165789
-0.000165983
-0.000166166
-0.000166336
-0.000166493
-0.000166637
-0.000166769
-0.000166891
-0.000167007
-0.000167118
-0.000167224
-0.000167321
-0.000167398
-0.000167439
-0.000167425
-0.000167337
-0.000167158
-0.000166878
-0.00016651
-0.000166081
-0.000164468
-0.000164476
-0.000164506
-0.000164553
-0.000164615
-0.000164692
-0.000164783
-0.000164887
-0.000165005
-0.000165135
-0.000165278
-0.000165433
-0.000165599
-0.000165776
-0.000165961
-0.000166152
-0.000166347
-0.000166543
-0.000166739
-0.000166931
-0.000167116
-0.000167291
-0.000167456
-0.000167606
-0.000167743
-0.000167867
-0.000167978
-0.000168079
-0.000168173
-0.00016826
-0.000168337
-0.000168395
-0.000168419
-0.000168389
-0.000168279
-0.000168067
-0.000167738
-0.000167285
-0.000166733
-0.000166114
-0.000165849
-0.000165858
-0.000165886
-0.00016593
-0.000165986
-0.000166055
-0.000166137
-0.000166231
-0.000166336
-0.000166453
-0.000166581
-0.000166721
-0.000166871
-0.000167031
-0.000167199
-0.000167372
-0.00016755
-0.000167729
-0.000167908
-0.000168082
-0.000168249
-0.000168406
-0.000168551
-0.000168682
-0.000168798
-0.000168899
-0.000168988
-0.000169066
-0.000169134
-0.000169191
-0.000169231
-0.00016924
-0.000169196
-0.000169071
-0.000168836
-0.000168465
-0.000167943
-0.000167275
-0.000166493
-0.000165637
-0.000167069
-0.000167078
-0.000167104
-0.000167143
-0.000167194
-0.000167255
-0.000167327
-0.00016741
-0.000167502
-0.000167604
-0.000167717
-0.00016784
-0.000167973
-0.000168115
-0.000168264
-0.000168421
-0.000168581
-0.000168744
-0.000168906
-0.000169063
-0.000169213
-0.000169351
-0.000169476
-0.000169586
-0.000169679
-0.000169757
-0.00016982
-0.000169871
-0.000169908
-0.000169929
-0.000169922
-0.000169866
-0.000169733
-0.000169486
-0.00016909
-0.000168519
-0.000167752
-0.000166814
-0.000165745
-0.000164598
-0.000168143
-0.000168152
-0.000168177
-0.000168212
-0.000168256
-0.000168309
-0.000168371
-0.000168441
-0.000168519
-0.000168606
-0.000168701
-0.000168807
-0.000168922
-0.000169045
-0.000169177
-0.000169316
-0.000169461
-0.000169609
-0.000169755
-0.000169897
-0.000170029
-0.000170149
-0.000170254
-0.000170341
-0.00017041
-0.000170461
-0.000170495
-0.000170513
-0.000170513
-0.000170487
-0.000170419
-0.00017028
-0.000170031
-0.000169625
-0.000169022
-0.000168194
-0.000167126
-0.000165855
-0.000164434
-0.000162929
-0.000169089
-0.000169099
-0.000169121
-0.000169151
-0.000169189
-0.000169233
-0.000169284
-0.000169341
-0.000169404
-0.000169473
-0.000169551
-0.000169638
-0.000169733
-0.000169839
-0.000169955
-0.00017008
-0.000170212
-0.000170346
-0.000170479
-0.000170607
-0.000170724
-0.000170826
-0.000170909
-0.000170972
-0.000171013
-0.000171033
-0.000171032
-0.000171011
-0.000170964
-0.00017088
-0.000170734
-0.000170486
-0.000170087
-0.00016948
-0.000168615
-0.000167461
-0.000166022
-0.000164343
-0.000162491
-0.00016055
-0.000169922
-0.000169932
-0.000169951
-0.000169977
-0.000170007
-0.000170042
-0.000170081
-0.000170123
-0.000170169
-0.00017022
-0.00017028
-0.000170347
-0.000170426
-0.000170517
-0.00017062
-0.000170733
-0.000170855
-0.00017098
-0.000171103
-0.000171219
-0.000171321
-0.000171405
-0.000171466
-0.000171502
-0.000171511
-0.000171495
-0.000171453
-0.000171383
-0.000171278
-0.000171119
-0.000170873
-0.000170487
-0.000169897
-0.000169034
-0.000167847
-0.000166292
-0.000164395
-0.000162215
-0.000159838
-0.000157368
-0.000170655
-0.000170665
-0.000170682
-0.000170702
-0.000170725
-0.000170749
-0.000170775
-0.000170801
-0.000170829
-0.000170862
-0.000170902
-0.000170953
-0.000171017
-0.000171097
-0.000171192
-0.0001713
-0.000171417
-0.000171537
-0.000171653
-0.000171759
-0.000171847
-0.000171913
-0.00017195
-0.000171956
-0.00017193
-0.000171871
-0.000171779
-0.00017165
-0.000171473
-0.00017122
-0.000170847
-0.000170287
-0.000169456
-0.000168272
-0.00016668
-0.000164641
-0.000162191
-0.000159404
-0.000156389
-0.000153281
-0.000171303
-0.000171312
-0.000171325
-0.00017134
-0.000171354
-0.000171367
-0.000171378
-0.000171387
-0.000171397
-0.000171412
-0.000171435
-0.000171472
-0.000171527
-0.000171602
-0.000171695
-0.000171804
-0.000171921
-0.000172041
-0.000172155
-0.000172254
-0.00017233
-0.000172376
-0.000172388
-0.00017236
-0.000172293
-0.000172185
-0.000172034
-0.000171834
-0.000171567
-0.000171198
-0.000170668
-0.000169891
-0.000168767
-0.000167202
-0.000165105
-0.000162478
-0.00015936
-0.000155843
-0.000152059
-0.000148183
-0.000171876
-0.000171885
-0.000171895
-0.000171903
-0.000171907
-0.000171908
-0.000171902
-0.000171893
-0.000171885
-0.000171883
-0.000171894
-0.000171924
-0.000171977
-0.000172055
-0.000172155
-0.000172271
-0.000172397
-0.000172522
-0.000172637
-0.000172731
-0.000172796
-0.000172823
-0.000172806
-0.000172742
-0.000172627
-0.000172462
-0.000172242
-0.000171957
-0.000171584
-0.000171075
-0.000170353
-0.000169311
-0.000167824
-0.000165794
-0.000163113
-0.000159785
-0.000155872
-0.000151482
-0.000146774
-0.000142014
-0.000172388
-0.000172396
-0.000172401
-0.000172402
-0.000172396
-0.000172382
-0.000172359
-0.000172333
-0.000172308
-0.000172294
-0.000172299
-0.00017233
-0.00017239
-0.000172481
-0.000172596
-0.000172729
-0.00017287
-0.000173006
-0.000173126
-0.000173218
-0.000173272
-0.000173279
-0.000173232
-0.000173126
-0.00017296
-0.00017273
-0.000172431
-0.000172048
-0.00017155
-0.000170875
-0.000169927
-0.000168577
-0.000166677
-0.000164073
-0.000160703
-0.000156562
-0.000151721
-0.000146307
-0.00014055
-0.000134761
-0.000172848
-0.000172855
-0.000172855
-0.000172847
-0.000172829
-0.000172799
-0.00017276
-0.000172718
-0.000172681
-0.000172661
-0.000172669
-0.000172711
-0.000172791
-0.000172905
-0.000173046
-0.000173205
-0.000173368
-0.00017352
-0.00017365
-0.000173742
-0.000173786
-0.000173772
-0.000173692
-0.000173542
-0.000173318
-0.000173017
-0.00017263
-0.000172137
-0.000171497
-0.000170633
-0.000169424
-0.00016771
-0.000165332
-0.000162097
-0.000157941
-0.000152865
-0.000146984
-0.000140419
-0.000133492
-0.000126407
-0.000173267
-0.000173272
-0.000173267
-0.00017325
-0.000173219
-0.000173171
-0.000173117
-0.000173062
-0.00017302
-0.000173004
-0.000173026
-0.000173093
-0.000173204
-0.000173353
-0.000173531
-0.000173724
-0.000173916
-0.000174091
-0.000174233
-0.000174328
-0.000174362
-0.000174327
-0.000174213
-0.000174016
-0.000173731
-0.000173353
-0.000172871
-0.000172259
-0.000171463
-0.00017039
-0.000168896
-0.000166795
-0.000163855
-0.000159927
-0.000154912
-0.000148837
-0.000141829
-0.000134106
-0.000125805
-0.000117033
-0.000173654
-0.000173657
-0.000173645
-0.000173617
-0.000173571
-0.00017351
-0.000173441
-0.000173379
-0.000173341
-0.000173341
-0.000173392
-0.000173497
-0.000173653
-0.00017385
-0.000174075
-0.00017431
-0.000174538
-0.00017474
-0.000174899
-0.000174998
-0.000175024
-0.000174967
-0.000174819
-0.000174573
-0.000174224
-0.000173767
-0.000173186
-0.000172449
-0.000171489
-0.000170194
-0.000168395
-0.000165873
-0.000162366
-0.000157704
-0.000151765
-0.000144756
-0.000136634
-0.000127827
-0.00011798
-0.000106893
-0.00017402
-0.000174019
-0.000174
-0.000173961
-0.000173896
-0.000173822
-0.000173745
-0.000173685
-0.000173663
-0.000173694
-0.000173789
-0.000173947
-0.000174162
-0.000174418
-0.0001747
-0.000174987
-0.000175256
-0.00017549
-0.000175667
-0.000175773
-0.000175792
-0.000175714
-0.000175531
-0.000175236
-0.000174825
-0.000174288
-0.000173609
-0.000172745
-0.000171621
-0.000170104
-0.000168001
-0.000165036
-0.000160981
-0.000155618
-0.000148799
-0.000140918
-0.000132017
-0.000122335
-0.000111089
-9.6881e-05
-0.000174374
-0.000174367
-0.000174337
-0.000174283
-0.000174207
-0.00017412
-0.000174041
-0.000173995
-0.000174004
-0.000174083
-0.000174238
-0.000174465
-0.000174751
-0.000175079
-0.000175427
-0.000175771
-0.000176087
-0.000176355
-0.000176555
-0.000176668
-0.000176682
-0.000176584
-0.000176368
-0.000176026
-0.000175554
-0.000174942
-0.000174167
-0.000173185
-0.000171905
-0.000170182
-0.000167778
-0.000164424
-0.000159877
-0.000153905
-0.000146414
-0.000137911
-0.000128745
-0.000118916
-0.000107953
-9.11583e-05
-0.000174722
-0.000174708
-0.000174667
-0.000174594
-0.000174505
-0.000174413
-0.000174344
-0.000174326
-0.000174383
-0.000174527
-0.000174759
-0.000175069
-0.00017544
-0.000175849
-0.00017627
-0.000176676
-0.000177044
-0.00017735
-0.000177572
-0.000177695
-0.000177704
-0.000177589
-0.000177342
-0.000176958
-0.00017643
-0.000175747
-0.000174887
-0.000173796
-0.000172376
-0.000170463
-0.000167798
-0.000164136
-0.000159218
-0.000152822
-0.000144948
-0.000136407
-0.0001277
-0.000118783
-0.000110739
-9.41644e-05
-5.56205e-07
-6.37456e-07
-7.14889e-07
-7.87633e-07
-8.54474e-07
-9.14664e-07
-9.66965e-07
-1.00968e-06
-1.04105e-06
-1.05889e-06
-1.05889e-06
-1.04102e-06
-1.00964e-06
-9.66903e-07
-9.14587e-07
-8.54383e-07
-7.87529e-07
-7.14772e-07
-6.37325e-07
-5.56057e-07
-2.19307e-05
-2.20296e-05
-2.21215e-05
-2.22051e-05
-2.22798e-05
-2.23445e-05
-2.23976e-05
-2.24377e-05
-2.24637e-05
-2.24754e-05
-2.24754e-05
-2.24637e-05
-2.24376e-05
-2.23975e-05
-2.23444e-05
-2.22797e-05
-2.2205e-05
-2.21214e-05
-2.20294e-05
-2.19305e-05
-3.82301e-05
-3.83346e-05
-3.84315e-05
-3.85204e-05
-3.86002e-05
-3.86701e-05
-3.87287e-05
-3.87744e-05
-3.88062e-05
-3.88227e-05
-3.88227e-05
-3.88061e-05
-3.87744e-05
-3.87286e-05
-3.867e-05
-3.86001e-05
-3.85202e-05
-3.84313e-05
-3.83344e-05
-3.82299e-05
-5.2319e-05
-5.24332e-05
-5.25382e-05
-5.26331e-05
-5.2717e-05
-5.27887e-05
-5.28476e-05
-5.28929e-05
-5.29239e-05
-5.29399e-05
-5.29398e-05
-5.29239e-05
-5.28929e-05
-5.28475e-05
-5.27886e-05
-5.27168e-05
-5.2633e-05
-5.25381e-05
-5.24331e-05
-5.23188e-05
-6.54612e-05
-6.55857e-05
-6.57e-05
-6.58027e-05
-6.58929e-05
-6.59692e-05
-6.60309e-05
-6.60776e-05
-6.6109e-05
-6.61247e-05
-6.61247e-05
-6.6109e-05
-6.60776e-05
-6.60308e-05
-6.59691e-05
-6.58928e-05
-6.58026e-05
-6.56998e-05
-6.55855e-05
-6.5461e-05
-7.75309e-05
-7.76665e-05
-7.77908e-05
-7.79024e-05
-7.80004e-05
-7.80835e-05
-7.81505e-05
-7.82014e-05
-7.82354e-05
-7.82525e-05
-7.82525e-05
-7.82354e-05
-7.82013e-05
-7.81505e-05
-7.80833e-05
-7.80003e-05
-7.79023e-05
-7.77906e-05
-7.76663e-05
-7.75307e-05
-8.85198e-05
-8.86663e-05
-8.88005e-05
-8.89211e-05
-8.90271e-05
-8.91173e-05
-8.91904e-05
-8.92459e-05
-8.92831e-05
-8.93017e-05
-8.93017e-05
-8.9283e-05
-8.92458e-05
-8.91903e-05
-8.91171e-05
-8.9027e-05
-8.8921e-05
-8.88003e-05
-8.8666e-05
-8.85195e-05
-9.85107e-05
-9.86675e-05
-9.88112e-05
-9.89405e-05
-9.90543e-05
-9.91513e-05
-9.92305e-05
-9.92905e-05
-9.93308e-05
-9.9351e-05
-9.9351e-05
-9.93307e-05
-9.92904e-05
-9.92304e-05
-9.91512e-05
-9.90541e-05
-9.89403e-05
-9.8811e-05
-9.86673e-05
-9.85105e-05
-0.000107574
-0.000107741
-0.000107893
-0.00010803
-0.000108151
-0.000108255
-0.000108339
-0.000108404
-0.000108447
-0.000108468
-0.000108468
-0.000108447
-0.000108403
-0.000108339
-0.000108255
-0.000108151
-0.00010803
-0.000107893
-0.00010774
-0.000107574
-0.000115773
-0.000115948
-0.000116107
-0.000116251
-0.000116378
-0.000116486
-0.000116575
-0.000116642
-0.000116687
-0.00011671
-0.00011671
-0.000116687
-0.000116642
-0.000116575
-0.000116486
-0.000116378
-0.000116251
-0.000116107
-0.000115947
-0.000115773
-0.000123167
-0.000123347
-0.000123512
-0.00012366
-0.000123791
-0.000123902
-0.000123992
-0.00012406
-0.000124106
-0.00012413
-0.000124129
-0.000124106
-0.00012406
-0.000123991
-0.000123901
-0.00012379
-0.00012366
-0.000123511
-0.000123346
-0.000123167
-0.000129812
-0.000129995
-0.000130162
-0.000130312
-0.000130442
-0.000130551
-0.00013064
-0.000130709
-0.000130755
-0.000130777
-0.000130777
-0.000130755
-0.000130709
-0.00013064
-0.000130551
-0.000130441
-0.000130312
-0.000130162
-0.000129995
-0.000129812
-0.000135763
-0.000135945
-0.000136109
-0.000136253
-0.000136377
-0.000136483
-0.000136569
-0.000136635
-0.000136679
-0.0001367
-0.0001367
-0.000136679
-0.000136635
-0.000136569
-0.000136482
-0.000136377
-0.000136253
-0.000136109
-0.000135945
-0.000135762
-0.000141068
-0.000141242
-0.000141394
-0.000141528
-0.000141644
-0.000141742
-0.000141823
-0.000141884
-0.000141924
-0.000141942
-0.000141942
-0.000141924
-0.000141884
-0.000141822
-0.000141742
-0.000141643
-0.000141527
-0.000141394
-0.000141242
-0.000141068
-0.000145769
-0.000145925
-0.000146061
-0.000146181
-0.000146284
-0.000146371
-0.000146442
-0.000146495
-0.000146529
-0.000146543
-0.000146543
-0.000146529
-0.000146495
-0.000146442
-0.000146371
-0.000146284
-0.00014618
-0.000146061
-0.000145924
-0.000145768
-0.000149901
-0.000150035
-0.000150151
-0.000150251
-0.000150336
-0.000150407
-0.000150464
-0.000150506
-0.000150532
-0.00015054
-0.00015054
-0.000150532
-0.000150506
-0.000150464
-0.000150407
-0.000150336
-0.000150251
-0.000150151
-0.000150035
-0.000149901
-0.000153505
-0.000153611
-0.000153699
-0.000153773
-0.000153833
-0.000153882
-0.00015392
-0.000153948
-0.000153962
-0.000153964
-0.000153964
-0.000153962
-0.000153948
-0.00015392
-0.000153882
-0.000153833
-0.000153772
-0.000153699
-0.00015361
-0.000153505
-0.000156611
-0.00015668
-0.000156732
-0.000156771
-0.0001568
-0.000156822
-0.000156837
-0.000156845
-0.000156846
-0.000156839
-0.000156839
-0.000156846
-0.000156845
-0.000156836
-0.000156821
-0.0001568
-0.000156771
-0.000156732
-0.000156679
-0.00015661
-0.000159244
-0.000159265
-0.000159271
-0.000159267
-0.000159257
-0.000159244
-0.00015923
-0.000159216
-0.000159201
-0.000159185
-0.000159184
-0.000159201
-0.000159216
-0.00015923
-0.000159244
-0.000159257
-0.000159267
-0.000159271
-0.000159265
-0.000159243
-0.000161421
-0.000161382
-0.00016133
-0.000161272
-0.000161214
-0.000161159
-0.00016111
-0.000161069
-0.000161036
-0.000161008
-0.000161008
-0.000161036
-0.000161069
-0.00016111
-0.000161158
-0.000161213
-0.000161272
-0.00016133
-0.000161382
-0.00016142
-0.000163151
-0.000163036
-0.000162912
-0.000162788
-0.000162671
-0.000162565
-0.000162475
-0.000162403
-0.000162348
-0.000162309
-0.000162309
-0.000162348
-0.000162402
-0.000162475
-0.000162565
-0.00016267
-0.000162788
-0.000162912
-0.000163036
-0.00016315
-0.000164435
-0.000164226
-0.000164013
-0.000163807
-0.000163618
-0.000163451
-0.000163312
-0.000163202
-0.000163123
-0.000163071
-0.000163071
-0.000163123
-0.000163202
-0.000163312
-0.000163451
-0.000163617
-0.000163807
-0.000164012
-0.000164225
-0.000164434
-0.000165264
-0.000164937
-0.000164614
-0.000164308
-0.000164032
-0.000163793
-0.000163594
-0.000163441
-0.000163333
-0.000163267
-0.000163267
-0.000163332
-0.000163441
-0.000163594
-0.000163792
-0.000164032
-0.000164308
-0.000164613
-0.000164936
-0.000165263
-0.000165617
-0.000165144
-0.000164685
-0.000164259
-0.000163877
-0.00016355
-0.000163282
-0.000163076
-0.000162934
-0.000162852
-0.000162852
-0.000162934
-0.000163076
-0.000163281
-0.00016355
-0.000163877
-0.000164258
-0.000164685
-0.000165144
-0.000165616
-0.000165462
-0.000164809
-0.000164185
-0.00016361
-0.000163102
-0.000162669
-0.000162317
-0.00016205
-0.000161869
-0.000161769
-0.000161769
-0.000161869
-0.00016205
-0.000162317
-0.000162669
-0.000163101
-0.00016361
-0.000164184
-0.000164809
-0.000165461
-0.000164752
-0.000163878
-0.000163052
-0.000162299
-0.000161638
-0.00016108
-0.000160629
-0.00016029
-0.000160061
-0.00015994
-0.00015994
-0.000160061
-0.00016029
-0.000160629
-0.000161079
-0.000161638
-0.000162299
-0.000163052
-0.000163878
-0.000164752
-0.000163427
-0.000162284
-0.000161213
-0.000160247
-0.000159404
-0.000158697
-0.00015813
-0.000157705
-0.000157422
-0.000157275
-0.000157275
-0.000157421
-0.000157705
-0.00015813
-0.000158697
-0.000159404
-0.000160246
-0.000161213
-0.000162283
-0.000163426
-0.000161409
-0.000159941
-0.000158578
-0.000157358
-0.000156302
-0.000155422
-0.00015472
-0.000154196
-0.000153848
-0.000153672
-0.000153672
-0.000153847
-0.000154195
-0.000154719
-0.000155421
-0.000156302
-0.000157358
-0.000158578
-0.00015994
-0.000161409
-0.000158609
-0.00015675
-0.000155041
-0.000153525
-0.000152223
-0.000151142
-0.000150286
-0.000149649
-0.000149228
-0.000149017
-0.000149017
-0.000149227
-0.000149649
-0.000150286
-0.000151142
-0.000152222
-0.000153524
-0.000155041
-0.00015675
-0.000158608
-0.00015492
-0.000152599
-0.000150486
-0.000148629
-0.000147046
-0.000145742
-0.000144713
-0.000143949
-0.000143446
-0.000143196
-0.000143196
-0.000143446
-0.000143949
-0.000144712
-0.000145742
-0.000147046
-0.000148628
-0.000150485
-0.000152599
-0.00015492
-0.000150229
-0.000147367
-0.000144794
-0.000142554
-0.000140655
-0.000139099
-0.000137877
-0.000136977
-0.000136386
-0.000136096
-0.000136096
-0.000136386
-0.000136977
-0.000137877
-0.000139099
-0.000140654
-0.000142553
-0.000144793
-0.000147366
-0.000150228
-0.000144428
-0.000140956
-0.000137852
-0.000135167
-0.000132912
-0.000131082
-0.000129658
-0.000128617
-0.00012794
-0.000127612
-0.000127612
-0.00012794
-0.000128617
-0.000129658
-0.000131082
-0.000132912
-0.000135166
-0.000137851
-0.000140955
-0.000144427
-0.000137451
-0.000133241
-0.00012951
-0.000126322
-0.000123682
-0.00012157
-0.000119945
-0.00011877
-0.000118014
-0.000117653
-0.000117653
-0.000118014
-0.00011877
-0.000119945
-0.000121569
-0.000123682
-0.000126321
-0.000129509
-0.00013324
-0.00013745
-0.000129187
-0.000124076
-0.000119615
-0.000115873
-0.000112836
-0.000110449
-0.000108643
-0.000107354
-0.000106534
-0.000106151
-0.000106151
-0.000106534
-0.000107353
-0.000108642
-0.000110449