/*--------------------------------*- C++ -*----------------------------------*\
  =========                 |
  \\      /  F ield         | OpenFOAM: The Open Source CFD Toolbox
   \\    /   O peration     | Website:  https://openfoam.org
    \\  /    A nd           | Version:  6
     \\/     M anipulation  |
\*---------------------------------------------------------------------------*/
FoamFile
{
    version     2.0;
    format      ascii;
    class       surfaceScalarField;
    location    "10";
    object      phi;
}
// * * * * * * * * * * * * * * * * * * * * * * * * * * * * * * * * * * * * * //

dimensions      [0 3 -1 0 0 0 0];

internalField   nonuniform List<scalar> 
17340
(
-1.30636e-10
1.30601e-10
-1.03289e-10
-2.73473e-11
-7.06791e-11
-3.26097e-11
-5.45595e-11
-1.61196e-11
-4.97118e-11
-4.8477e-12
-5.11484e-11
1.43662e-12
-5.57821e-11
4.63366e-12
-6.23288e-11
6.54671e-12
-7.01221e-11
7.79327e-12
-7.88037e-11
8.68164e-12
-8.81562e-11
9.35241e-12
-9.80215e-11
9.86531e-12
-1.08259e-10
1.0238e-11
-1.18724e-10
1.04641e-11
-1.29246e-10
1.05225e-11
-1.39629e-10
1.03833e-11
-1.49642e-10
1.00129e-11
-1.5902e-10
9.37804e-12
-1.67469e-10
8.44907e-12
-1.74676e-10
7.20636e-12
-1.80323e-10
5.64777e-12
-1.84114e-10
3.79003e-12
-1.85812e-10
1.69886e-12
-1.85021e-10
-7.91487e-13
-1.81022e-10
-3.99882e-12
-1.73621e-10
-7.40132e-12
-1.62734e-10
-1.08863e-11
-1.48514e-10
-1.42205e-11
-1.31382e-10
-1.71317e-11
-1.12017e-10
-1.93648e-11
-9.12684e-11
-2.07491e-11
-7.00584e-11
-2.121e-11
-4.92986e-11
-2.07597e-11
-2.9766e-11
-1.95326e-11
-1.2036e-11
-1.773e-11
3.44989e-12
-1.5486e-11
1.68875e-11
-1.34377e-11
2.8162e-11
-1.12745e-11
3.71042e-11
-8.94221e-12
-7.20792e-12
4.43122e-11
5.70727e-11
7.35287e-11
-3.08106e-12
3.28064e-11
-5.10606e-11
1.53702e-11
-8.39509e-11
1.67709e-11
-1.1063e-10
2.18315e-11
-1.35382e-10
2.6188e-11
-1.59962e-10
2.92134e-11
-1.85236e-10
3.18216e-11
-2.11508e-10
3.40645e-11
-2.38765e-10
3.59394e-11
-2.66855e-10
3.74417e-11
-2.95539e-10
3.85494e-11
-3.24517e-10
3.92166e-11
-3.53427e-10
3.93739e-11
-3.81837e-10
3.8933e-11
-4.09249e-10
3.7795e-11
-4.35096e-10
3.58595e-11
-4.58753e-10
3.30354e-11
-4.79554e-10
2.92502e-11
-4.96813e-10
2.44648e-11
-5.09854e-10
1.86895e-11
-5.18046e-10
1.19813e-11
-5.20708e-10
4.36125e-12
-5.17412e-10
-4.08791e-12
-5.07595e-10
-1.38155e-11
-4.90651e-10
-2.43453e-11
-4.66471e-10
-3.50667e-11
-4.35386e-10
-4.53051e-11
-3.98178e-10
-5.43392e-11
-3.56036e-10
-6.15069e-11
-3.10443e-10
-6.63421e-11
-2.6303e-10
-6.86232e-11
-2.15417e-10
-6.83726e-11
-1.6903e-10
-6.59196e-11
-1.24925e-10
-6.18359e-11
-8.37703e-11
-5.66403e-11
-4.64205e-11
-5.07876e-11
-1.31741e-11
-4.45209e-11
1.57406e-11
-3.7857e-11
-3.0811e-11
3.93437e-11
2.53309e-11
4.81978e-11
-1.95558e-11
7.76931e-11
-7.91702e-11
7.49847e-11
-1.33224e-10
7.08243e-11
-1.81538e-10
7.01458e-11
-2.26836e-10
7.14861e-11
-2.71242e-10
7.36192e-11
-3.15545e-10
7.61249e-11
-3.60078e-10
7.85973e-11
-4.04877e-10
8.07389e-11
-4.49779e-10
8.2343e-11
-4.9447e-10
8.32411e-11
-5.38525e-10
8.3271e-11
-5.81414e-10
8.22637e-11
-6.22524e-10
8.00421e-11
-6.61157e-10
7.64287e-11
-6.96556e-10
7.1258e-11
-7.27911e-10
6.43908e-11
-7.5439e-10
5.57291e-11
-7.7516e-10
4.52351e-11
-7.89426e-10
3.29551e-11
-7.96461e-10
1.90169e-11
-7.95645e-10
3.54527e-12
-7.86615e-10
-1.31182e-11
-7.68968e-10
-3.1463e-11
-7.42436e-10
-5.08768e-11
-7.07162e-10
-7.03413e-11
-6.63737e-10
-8.87293e-11
-6.13194e-10
-1.04883e-10
-5.56944e-10
-1.17757e-10
-4.96671e-10
-1.26615e-10
-4.34185e-10
-1.31109e-10
-3.71279e-10
-1.31279e-10
-3.09569e-10
-1.27629e-10
-2.50378e-10
-1.21027e-10
-1.94746e-10
-1.12271e-10
-1.43525e-10
-1.02009e-10
-9.7363e-11
-9.06827e-11
-5.666e-11
-7.856e-11
-6.58996e-11
-2.15714e-11
-2.05891e-11
6.8787e-11
-6.60421e-11
1.23146e-10
-1.25507e-10
1.3445e-10
-1.88572e-10
1.33889e-10
-2.51076e-10
1.3265e-10
-3.12432e-10
1.32842e-10
-3.72977e-10
1.34165e-10
-4.32867e-10
1.36015e-10
-4.92113e-10
1.37843e-10
-5.50582e-10
1.39208e-10
-6.07999e-10
1.3976e-10
-6.63958e-10
1.392e-10
-7.1794e-10
1.37253e-10
-7.69331e-10
1.33655e-10
-8.1744e-10
1.28152e-10
-8.61518e-10
1.20506e-10
-9.00773e-10
1.10513e-10
-9.34397e-10
9.80148e-11
-9.6159e-10
8.29226e-11
-9.81591e-10
6.52362e-11
-9.93705e-10
4.50688e-11
-9.97339e-10
2.26505e-11
-9.92078e-10
-1.71544e-12
-9.77293e-10
-2.79037e-11
-9.52841e-10
-5.59144e-11
-9.18881e-10
-8.48372e-11
-8.75866e-10
-1.13356e-10
-8.24602e-10
-1.39994e-10
-7.66243e-10
-1.63242e-10
-7.02261e-10
-1.81739e-10
-6.34351e-10
-1.94525e-10
-5.64308e-10
-2.01152e-10
-4.93903e-10
-2.01683e-10
-4.24751e-10
-1.96782e-10
-3.58197e-10
-1.87581e-10
-2.95316e-10
-1.75153e-10
-2.36908e-10
-1.60417e-10
-1.83558e-10
-1.44033e-10
-1.35652e-10
-1.26465e-10
-1.0816e-10
-9.33923e-11
-3.32903e-11
1.02077e-10
-8.96709e-11
1.79527e-10
-1.58091e-10
2.02869e-10
-2.31454e-10
2.07252e-10
-3.05854e-10
2.0705e-10
-3.79664e-10
2.06652e-10
-4.52303e-10
2.06804e-10
-5.23483e-10
2.07194e-10
-5.92962e-10
2.07322e-10
-6.60452e-10
2.06698e-10
-7.25577e-10
2.04885e-10
-7.87869e-10
2.01493e-10
-8.46777e-10
1.96161e-10
-9.01679e-10
1.88557e-10
-9.51904e-10
1.78377e-10
-9.96751e-10
1.65353e-10
-1.03551e-09
1.4927e-10
-1.06748e-09
1.29983e-10
-1.092e-09
1.07442e-10
-1.10847e-09
8.17078e-11
-1.11637e-09
5.2974e-11
-1.11527e-09
2.15506e-11
-1.10476e-09
-1.22269e-11
-1.08433e-09
-4.83357e-11
-1.0541e-09
-8.61463e-11
-1.01448e-09
-1.24454e-10
-9.66135e-10
-1.617e-10
-9.09993e-10
-1.96136e-10
-8.47264e-10
-2.25971e-10
-7.79426e-10
-2.49577e-10
-7.08158e-10
-2.65793e-10
-6.35216e-10
-2.74094e-10
-5.62323e-10
-2.74576e-10
-4.91036e-10
-2.68069e-10
-4.22621e-10
-2.55996e-10
-3.58042e-10
-2.39732e-10
-2.97969e-10
-2.2049e-10
-2.42831e-10
-1.9917e-10
-1.92886e-10
-1.76411e-10
-1.5279e-10
-1.48256e-10
-3.57077e-11
1.37785e-10
-1.00831e-10
2.4465e-10
-1.78256e-10
2.80294e-10
-2.60297e-10
2.89294e-10
-3.43223e-10
2.89975e-10
-4.2521e-10
2.88639e-10
-5.05353e-10
2.86947e-10
-5.83117e-10
2.84958e-10
-6.58088e-10
2.82293e-10
-7.29864e-10
2.78474e-10
-7.98005e-10
2.73027e-10
-8.62022e-10
2.6551e-10
-9.21378e-10
2.55516e-10
-9.75499e-10
2.42677e-10
-1.02379e-09
2.26669e-10
-1.06566e-09
2.07221e-10
-1.10052e-09
1.84132e-10
-1.12783e-09
1.57291e-10
-1.14709e-09
1.26702e-10
-1.15788e-09
9.24965e-11
-1.15983e-09
5.49275e-11
-1.15263e-09
1.43485e-11
-1.13602e-09
-2.884e-11
-1.10979e-09
-7.45665e-11
-1.07423e-09
-1.21704e-10
-1.02988e-09
-1.68807e-10
-9.7747e-10
-2.14105e-10
-9.1799e-10
-2.55616e-10
-8.52668e-10
-2.91293e-10
-7.83001e-10
-3.19244e-10
-7.10682e-10
-3.38112e-10
-6.37481e-10
-3.47295e-10
-5.65128e-10
-3.46929e-10
-4.95155e-10
-3.38042e-10
-4.28742e-10
-3.22409e-10
-3.66714e-10
-3.0176e-10
-3.09548e-10
-2.77656e-10
-2.57449e-10
-2.51269e-10
-2.10446e-10
-2.23414e-10
-1.94793e-10
-1.68443e-10
-3.72491e-11
1.75034e-10
-1.06407e-10
3.13808e-10
-1.88376e-10
3.62263e-10
-2.74806e-10
3.75724e-10
-3.61761e-10
3.76931e-10
-4.47259e-10
3.74137e-10
-5.30208e-10
3.69895e-10
-6.09913e-10
3.64664e-10
-6.85843e-10
3.58223e-10
-7.57522e-10
3.50152e-10
-8.2448e-10
3.39985e-10
-8.86237e-10
3.27267e-10
-9.42302e-10
3.11582e-10
-9.92181e-10
2.92556e-10
-1.03538e-09
2.69872e-10
-1.07144e-09
2.43281e-10
-1.09993e-09
2.12614e-10
-1.12044e-09
1.77809e-10
-1.13268e-09
1.38936e-10
-1.13638e-09
9.62012e-11
-1.13137e-09
4.99175e-11
-1.11745e-09
4.30909e-13
-1.09445e-09
-5.18423e-11
-1.06252e-09
-1.06496e-10
-1.02203e-09
-1.622e-10
-9.73506e-10
-2.17328e-10
-9.17705e-10
-2.69906e-10
-8.55604e-10
-3.17716e-10
-7.88459e-10
-3.58439e-10
-7.17815e-10
-3.89887e-10
-6.45447e-10
-4.1048e-10
-5.73221e-10
-4.19521e-10
-5.02964e-10
-4.17186e-10
-4.36262e-10
-4.04744e-10
-3.7426e-10
-3.84411e-10
-3.17663e-10
-3.58357e-10
-2.66744e-10
-3.28575e-10
-2.21438e-10
-2.96575e-10
-1.8148e-10
-2.63373e-10
-2.29819e-10
-1.46454e-10
-3.73564e-11
2.1239e-10
-1.06549e-10
3.83e-10
-1.88564e-10
4.44278e-10
-2.7489e-10
4.6205e-10
-3.61426e-10
4.63467e-10
-4.46044e-10
4.58754e-10
-5.27518e-10
4.51369e-10
-6.05044e-10
4.4219e-10
-6.78015e-10
4.31194e-10
-7.45914e-10
4.18051e-10
-8.08269e-10
4.0234e-10
-8.64632e-10
3.8363e-10
-9.14575e-10
3.61524e-10
-9.57691e-10
3.35672e-10
-9.93603e-10
3.05785e-10
-1.02197e-09
2.71651e-10
-1.04251e-09
2.33149e-10
-1.05498e-09
1.90276e-10
-1.05921e-09
1.43173e-10
-1.05512e-09
9.21061e-11
-1.04266e-09
3.74585e-11
-1.02192e-09
-2.03031e-11
-9.92769e-10
-8.09971e-11
-9.55441e-10
-1.43824e-10
-9.10305e-10
-2.07336e-10
-8.57866e-10
-2.69768e-10
-7.9883e-10
-3.28942e-10
-7.34166e-10
-3.82381e-10
-6.65171e-10
-4.27434e-10
-5.93496e-10
-4.61562e-10
-5.21069e-10
-4.82908e-10
-4.49951e-10
-4.90638e-10
-3.82167e-10
-4.84971e-10
-3.19471e-10
-4.6744e-10
-2.63042e-10
-4.40841e-10
-2.13526e-10
-4.07873e-10
-1.71018e-10
-3.71082e-10
-1.35172e-10
-3.32421e-10
-1.0539e-10
-2.93154e-10
-2.54344e-10
-8.08657e-11
-3.54775e-11
2.47868e-10
-1.01321e-10
4.48843e-10
-1.79522e-10
5.22479e-10
-2.61794e-10
5.44322e-10
-3.44016e-10
5.4569e-10
-4.23982e-10
5.3872e-10
-5.00381e-10
5.27769e-10
-5.72345e-10
5.14153e-10
-6.39223e-10
4.98072e-10
-7.00486e-10
4.79315e-10
-7.55679e-10
4.57532e-10
-8.04397e-10
4.32348e-10
-8.46278e-10
4.03406e-10
-8.81006e-10
3.70399e-10
-9.08306e-10
3.33086e-10
-9.27958e-10
2.91302e-10
-9.39794e-10
2.44985e-10
-9.43715e-10
1.94197e-10
-9.39697e-10
1.39155e-10
-9.27777e-10
8.01856e-11
-9.08018e-10
1.76995e-11
-8.80617e-10
-4.77037e-11
-8.45598e-10
-1.16017e-10
-8.03142e-10
-1.86279e-10
-7.53507e-10
-2.56972e-10
-6.97113e-10
-3.26161e-10
-6.34607e-10
-3.91448e-10
-5.66926e-10
-4.50061e-10
-4.95467e-10
-4.98893e-10
-4.22043e-10
-5.34986e-10
-3.48807e-10
-5.56144e-10
-2.78119e-10
-5.61326e-10
-2.12278e-10
-5.50812e-10
-1.53315e-10
-5.26402e-10
-1.0255e-10
-4.91606e-10
-6.06685e-11
-4.49755e-10
-2.7644e-11
-4.04107e-10
-2.87131e-12
-3.57193e-10
1.46192e-11
-3.10645e-10
-2.65724e-10
2.59996e-11
-3.1934e-11
2.79802e-10
-9.15973e-11
5.08506e-10
-1.62769e-10
5.93651e-10
-2.37713e-10
6.19266e-10
-3.12437e-10
6.20414e-10
-3.84725e-10
6.11007e-10
-4.53229e-10
5.96273e-10
-5.17046e-10
5.77971e-10
-5.75513e-10
5.56539e-10
-6.28106e-10
5.31909e-10
-6.74399e-10
5.03826e-10
-7.14035e-10
4.71984e-10
-7.4672e-10
4.3609e-10
-7.72214e-10
3.95893e-10
-7.90335e-10
3.51206e-10
-8.00954e-10
3.01922e-10
-8.04007e-10
2.48038e-10
-7.99491e-10
1.89681e-10
-7.87481e-10
1.27146e-10
-7.68137e-10
6.08407e-11
-7.41664e-10
-8.77322e-12
-7.08134e-10
-8.1234e-11
-6.67689e-10
-1.56461e-10
-6.20363e-10
-2.33605e-10
-5.66233e-10
-3.11101e-10
-5.05633e-10
-3.86762e-10
-4.39155e-10
-4.57926e-10
-3.67665e-10
-5.21552e-10
-2.92756e-10
-5.73802e-10
-2.16469e-10
-6.11273e-10
-1.41244e-10
-6.31369e-10
-6.98223e-11
-6.32748e-10
-4.75496e-12
-6.15879e-10
5.15889e-11
-5.82746e-10
9.73925e-11
-5.37409e-10
1.31968e-10
-4.8433e-10
1.55419e-10
-4.27558e-10
1.68523e-10
-3.70297e-10
1.72606e-10
-3.14728e-10
-2.62343e-10
1.69225e-10
-2.71953e-11
3.06997e-10
-7.85264e-11
5.59837e-10
-1.40191e-10
6.55315e-10
-2.05298e-10
6.84373e-10
-2.70113e-10
6.85229e-10
-3.32479e-10
6.73373e-10
-3.91051e-10
6.54846e-10
-4.44924e-10
6.31843e-10
-4.93437e-10
6.05052e-10
-5.36089e-10
5.7456e-10
-5.72487e-10
5.40223e-10
-6.02323e-10
5.0182e-10
-6.25362e-10
4.59129e-10
-6.41434e-10
4.11965e-10
-6.50426e-10
3.60198e-10
-6.52281e-10
3.03777e-10
-6.47001e-10
2.42757e-10
-6.34643e-10
1.77323e-10
-6.15307e-10
1.0781e-10
-5.89165e-10
3.46989e-11
-5.56761e-10
-4.1177e-11
-5.17976e-10
-1.20019e-10
-4.72644e-10
-2.01793e-10
-4.20663e-10
-2.85587e-10
-3.61881e-10
-3.69883e-10
-2.96614e-10
-4.52029e-10
-2.25491e-10
-5.29049e-10
-1.49272e-10
-5.97771e-10
-6.97964e-11
-6.53277e-10
1.07484e-11
-6.91817e-10
8.93283e-11
-7.09949e-10
1.62671e-10
-7.0609e-10
2.27933e-10
-6.81141e-10
2.82789e-10
-6.37602e-10
3.25221e-10
-5.79842e-10
3.54043e-10
-5.13152e-10
3.69115e-10
-4.42631e-10
3.71235e-10
-3.72417e-10
3.61907e-10
-3.05401e-10
-2.43511e-10
3.43075e-10
-2.17139e-11
3.28711e-10
-6.33043e-11
6.01428e-10
-1.13787e-10
7.05797e-10
-1.6734e-10
7.37926e-10
-2.20612e-10
7.38502e-10
-2.71576e-10
7.24336e-10
-3.18927e-10
7.02197e-10
-3.6178e-10
6.74696e-10
-3.99497e-10
6.4277e-10
-4.31606e-10
6.06669e-10
-4.57751e-10
5.66368e-10
-4.77668e-10
5.21737e-10
-4.91175e-10
4.72636e-10
-4.98154e-10
4.18944e-10
-4.98546e-10
3.6059e-10
-4.92341e-10
2.97573e-10
-4.79576e-10
2.29992e-10
-4.60347e-10
1.58094e-10
-4.34835e-10
8.22976e-11
-4.03184e-10
3.04792e-12
-3.65602e-10
-7.87595e-11
-3.21942e-10
-1.63679e-10
-2.71921e-10
-2.51815e-10
-2.15271e-10
-3.42237e-10
-1.51523e-10
-4.33631e-10
-8.09967e-11
-5.22556e-10
-4.1502e-12
-6.05896e-10
7.75843e-11
-6.79506e-10
1.62122e-10
-7.37815e-10
2.47128e-10
-7.76823e-10
3.29826e-10
-7.92648e-10
4.06988e-10
-7.83252e-10
4.75041e-10
-7.49194e-10
5.30858e-10
-6.93419e-10
5.71938e-10
-6.20922e-10
5.96734e-10
-5.37947e-10
6.04864e-10
-4.50761e-10
5.97065e-10
-3.64618e-10
5.7496e-10
-2.83296e-10
-2.09354e-10
5.40804e-10
-1.59222e-11
3.44633e-10
-4.70885e-11
6.32594e-10
-8.54965e-11
7.44205e-10
-1.26546e-10
7.78975e-10
-1.67379e-10
7.79335e-10
-2.06162e-10
7.63119e-10
-2.41674e-10
7.37709e-10
-2.73074e-10
7.06096e-10
-2.9976e-10
6.69455e-10
-3.21291e-10
6.282e-10
-3.37347e-10
5.82424e-10
-3.47702e-10
5.32092e-10
-3.52213e-10
4.77147e-10
-3.50802e-10
4.17533e-10
-3.4344e-10
3.53229e-10
-3.30136e-10
2.84269e-10
-3.10904e-10
2.10759e-10
-2.85744e-10
1.32935e-10
-2.5477e-10
5.13232e-11
-2.18577e-10
-3.31454e-11
-1.76862e-10
-1.20474e-10
-1.288e-10
-2.11741e-10
-7.40592e-11
-3.06556e-10
-1.21423e-11
-4.04154e-10
5.6962e-11
-5.02735e-10
1.32903e-10
-5.98497e-10
2.15074e-10
-6.88067e-10
3.02202e-10
-7.66634e-10
3.92863e-10
-8.28476e-10
4.8439e-10
-8.6835e-10
5.7352e-10
-8.81778e-10
6.5647e-10
-8.66202e-10
7.29152e-10
-8.21876e-10
7.87759e-10
-7.52026e-10
8.29234e-10
-6.62397e-10
8.5162e-10
-5.60333e-10
8.54273e-10
-4.53414e-10
8.37831e-10
-3.48176e-10
8.03983e-10
-2.49448e-10
-1.60598e-10
7.55227e-10
-1.02057e-11
3.54839e-10
-3.09173e-11
6.53306e-10
-5.70713e-11
7.70359e-10
-8.53676e-11
8.07272e-10
-1.1353e-10
8.07497e-10
-1.39983e-10
7.89572e-10
-1.63628e-10
7.61355e-10
-1.8369e-10
7.26158e-10
-1.99612e-10
6.85377e-10
-2.1099e-10
6.39578e-10
-2.17531e-10
5.88965e-10
-2.19031e-10
5.33593e-10
-2.15376e-10
4.73492e-10
-2.06504e-10
4.0866e-10
-1.9239e-10
3.39115e-10
-1.73041e-10
2.6492e-10
-1.48443e-10
1.86161e-10
-1.18515e-10
1.03007e-10
-8.33187e-11
1.61268e-11
-4.29814e-11
-7.34827e-11
3.10991e-12
-1.66565e-10
5.56293e-11
-2.6426e-10
1.15099e-10
-3.66026e-10
1.81952e-10
-4.71006e-10
2.56167e-10
-5.76951e-10
3.37987e-10
-6.80317e-10
4.26784e-10
-7.76864e-10
5.21303e-10
-8.61153e-10
6.19737e-10
-9.2691e-10
7.19261e-10
-9.67873e-10
8.16205e-10
-9.78722e-10
9.06254e-10
-9.56252e-10
9.84776e-10
-9.00397e-10
1.04736e-09
-8.14615e-10
1.09042e-09
-7.0545e-10
1.11156e-09
-5.81476e-10
1.10988e-09
-4.51738e-10
1.08592e-09
-3.2421e-10
1.04139e-09
-2.04923e-10
-9.82022e-11
9.78996e-10
-4.88033e-12
3.59719e-10
-1.56514e-11
6.64077e-10
-2.99827e-11
7.84691e-10
-4.58879e-11
8.23177e-10
-6.17317e-11
8.23341e-10
-7.62502e-11
8.0409e-10
-8.85013e-11
7.73606e-10
-9.77942e-11
7.35451e-10
-1.03624e-10
6.91207e-10
-1.05622e-10
6.41576e-10
-1.03518e-10
5.8686e-10
-9.71031e-11
5.27178e-10
-8.62795e-11
4.62669e-10
-7.09653e-11
3.93346e-10
-5.10934e-11
3.19243e-10
-2.65834e-11
2.4041e-10
2.67774e-12
1.569e-10
3.67508e-11
6.8934e-11
7.54688e-11
-2.25912e-11
1.19383e-10
-1.17397e-10
1.69456e-10
-2.16637e-10
2.26416e-10
-3.21221e-10
2.91145e-10
-4.30755e-10
3.6403e-10
-5.43891e-10
4.45191e-10
-6.58111e-10
5.34601e-10
-7.69727e-10
6.31601e-10
-8.73863e-10
7.34849e-10
-9.64401e-10
8.42235e-10
-1.0343e-09
9.50678e-10
-1.07632e-09
1.05615e-09
-1.08419e-09
1.15387e-09
-1.05397e-09
1.2387e-09
-9.85224e-10
1.30569e-09
-8.81602e-10
1.35073e-09
-7.50493e-10
1.37107e-09
-6.01814e-10
1.36555e-09
-4.46225e-10
1.33463e-09
-2.9329e-10
1.28013e-09
-1.50418e-10
-2.29349e-11
1.20486e-09
-1.67665e-13
3.59887e-10
-1.92316e-12
6.65832e-10
-5.3572e-12
7.88125e-10
-9.74888e-12
8.27569e-10
-1.41257e-11
8.27718e-10
-1.75675e-11
8.07532e-10
-1.93133e-11
7.75351e-10
-1.87702e-11
7.34908e-10
-1.54851e-11
6.87922e-10
-9.11249e-12
6.35204e-10
6.10694e-13
5.77137e-10
1.38705e-11
5.13918e-10
3.08042e-11
4.45735e-10
5.15359e-11
3.72614e-10
7.6188e-11
2.94591e-10
1.04896e-10
2.11702e-10
1.37823e-10
1.23973e-10
1.7523e-10
3.15272e-11
2.17453e-10
-6.4814e-11
2.65556e-10
-1.655e-10
3.20766e-10
-2.71848e-10
3.83966e-10
-3.8442e-10
4.55853e-10
-5.02642e-10
5.36771e-10
-6.24809e-10
6.26751e-10
-7.48092e-10
7.25476e-10
-8.68452e-10
8.3209e-10
-9.80477e-10
9.45066e-10
-1.07738e-09
1.06205e-09
-1.15128e-09
1.17972e-09
-1.19399e-09
1.29374e-09
-1.19821e-09
1.39894e-09
-1.15917e-09
1.48971e-09
-1.076e-09
1.56066e-09
-9.52544e-10
1.60722e-09
-7.97056e-10
1.62631e-09
-6.20901e-10
1.61657e-09
-4.3649e-10
1.57843e-09
-2.55151e-10
1.51379e-09
-8.57746e-11
6.61998e-11
1.42465e-09
3.88617e-12
3.56001e-10
9.94749e-12
6.59771e-10
1.60783e-11
7.81994e-10
2.1885e-11
8.21762e-10
2.77053e-11
8.21898e-10
3.41025e-11
8.01135e-10
4.1638e-11
7.67816e-10
5.07952e-11
7.25751e-10
6.19695e-11
6.76748e-10
7.54786e-11
6.21695e-10
9.15709e-11
5.61045e-10
1.10442e-10
4.95047e-10
1.32318e-10
4.23859e-10
1.57407e-10
3.47525e-10
1.85954e-10
2.66044e-10
2.18276e-10
1.79379e-10
2.54791e-10
8.74579e-11
2.96075e-10
-9.75653e-12
3.43133e-10
-1.11872e-10
3.97395e-10
-2.19763e-10
4.60076e-10
-3.34528e-10
5.31983e-10
-4.56327e-10
6.13551e-10
-5.84209e-10
7.04855e-10
-7.16113e-10
8.05626e-10
-8.48863e-10
9.15215e-10
-9.78041e-10
1.0325e-09
-1.09776e-09
1.15573e-09
-1.20061e-09
1.28236e-09
-1.27792e-09
1.40888e-09
-1.3205e-09
1.53071e-09
-1.32004e-09
1.64238e-09
-1.27084e-09
1.73793e-09
-1.17154e-09
1.81152e-09
-1.02614e-09
1.85827e-09
-8.43799e-10
1.87478e-09
-6.37413e-10
1.85954e-09
-4.21246e-10
1.81278e-09
-2.08394e-10
1.73603e-09
-9.02503e-12
1.69461e-10
1.63277e-09
7.30122e-12
3.487e-10
1.98499e-11
6.47222e-10
3.39342e-11
7.67909e-10
4.82759e-11
8.0742e-10
6.26629e-11
8.07511e-10
7.73163e-11
7.86481e-10
9.2592e-11
7.5254e-10
1.08857e-10
7.09486e-10
1.26452e-10
6.59153e-10
1.45682e-10
6.02465e-10
1.66828e-10
5.39899e-10
1.90176e-10
4.71699e-10
2.1606e-10
3.97975e-10
2.44866e-10
3.1872e-10
2.77079e-10
2.3383e-10
3.13367e-10
1.43092e-10
3.54632e-10
4.61926e-11
4.01722e-10
-5.68468e-11
4.56134e-10
-1.66284e-10
5.19493e-10
-2.83122e-10
5.9279e-10
-4.07826e-10
6.76469e-10
-5.40006e-10
7.70515e-10
-6.78256e-10
8.74546e-10
-8.20144e-10
9.87858e-10
-9.62176e-10
1.10943e-09
-1.09961e-09
1.23785e-09
-1.22618e-09
1.37121e-09
-1.33396e-09
1.50682e-09
-1.41353e-09
1.64107e-09
-1.45475e-09
1.76922e-09
-1.4482e-09
1.8856e-09
-1.38722e-09
1.98395e-09
-1.26989e-09
2.05812e-09
-1.10031e-09
2.10292e-09
-8.88597e-10
2.11478e-09
-6.49272e-10
2.09218e-09
-3.98645e-10
2.03554e-09
-1.51753e-10
1.94537e-09
8.11456e-11
2.88489e-10
1.82634e-09
1.00425e-11
3.38657e-10
2.76905e-11
6.29575e-10
4.7978e-11
7.47622e-10
6.89746e-11
7.86424e-10
9.00433e-11
7.86442e-10
1.11118e-10
7.65407e-10
1.32372e-10
7.31286e-10
1.54075e-10
6.87782e-10
1.76539e-10
6.36689e-10
2.00101e-10
5.78903e-10
2.25138e-10
5.14861e-10
2.52095e-10
4.44742e-10
2.81517e-10
3.68554e-10
3.14079e-10
2.86157e-10
3.50646e-10
1.97264e-10
3.92318e-10
1.0142e-10
4.40543e-10
-2.03235e-12
4.96674e-10
-1.12978e-10
5.62309e-10
-2.31919e-10
6.38667e-10
-3.5948e-10
7.2627e-10
-4.95428e-10
8.2497e-10
-6.38706e-10
9.34133e-10
-7.87418e-10
1.0528e-09
-9.38807e-10
1.17978e-09
-1.08916e-09
1.3137e-09
-1.23354e-09
1.45295e-09
-1.36543e-09
1.59549e-09
-1.47651e-09
1.73863e-09
-1.55667e-09
1.87872e-09
-1.59483e-09
2.01098e-09
-1.58047e-09
2.1296e-09
-1.50584e-09
2.22811e-09
-1.36839e-09
2.30011e-09
-1.17232e-09
2.34018e-09
-9.28662e-10
2.34457e-09
-6.53665e-10
2.31163e-09
-3.65707e-10
2.24162e-09
-8.17442e-11
2.13641e-09
1.86363e-10
4.24063e-10
2.00083e-09
1.20892e-11
3.26568e-10
3.34192e-11
6.08245e-10
5.81046e-11
7.22937e-10
8.37782e-11
7.6075e-10
1.09517e-10
7.60703e-10
1.35053e-10
7.39871e-10
1.60435e-10
7.05904e-10
1.85884e-10
6.62333e-10
2.11737e-10
6.10836e-10
2.38437e-10
5.52203e-10
2.66541e-10
4.86757e-10
2.96754e-10
4.14529e-10
3.29964e-10
3.35344e-10
3.67286e-10
2.48835e-10
4.10134e-10
1.54416e-10
4.60276e-10
5.12789e-11
5.19297e-10
-6.10543e-11
5.88731e-10
-1.82411e-10
6.69989e-10
-3.13177e-10
7.63548e-10
-4.5304e-10
8.69083e-10
-6.00964e-10
9.85635e-10
-7.55257e-10
1.11184e-09
-9.13624e-10
1.24615e-09
-1.07312e-09
1.38695e-09
-1.22996e-09
1.53262e-09
-1.3792e-09
1.68143e-09
-1.51424e-09
1.83135e-09
-1.62643e-09
1.97977e-09
-1.70509e-09
2.12311e-09
-1.73817e-09
2.25662e-09
-1.71398e-09
2.37442e-09
-1.62364e-09
2.46989e-09
-1.46386e-09
2.53646e-09
-1.23889e-09
2.56856e-09
-9.6076e-10
2.56238e-09
-6.4749e-10
2.51622e-09
-3.19541e-10
2.42984e-09
4.62892e-12
2.30721e-09
3.09e-10
5.7797e-10
2.1533e-09
1.34466e-11
3.13121e-10
3.70569e-11
5.84634e-10
6.43481e-11
6.95645e-10
9.27203e-11
7.32378e-10
1.21111e-10
7.32312e-10
1.49158e-10
7.11824e-10
1.76872e-10
6.7819e-10
2.04507e-10
6.34698e-10
2.32514e-10
5.82829e-10
2.61542e-10
5.23176e-10
2.92448e-10
4.55851e-10
3.26335e-10
3.80643e-10
3.6458e-10
2.97099e-10
4.08885e-10
2.0453e-10
4.6131e-10
1.01991e-10
5.24212e-10
-1.16233e-11
5.9908e-10
-1.35922e-10
6.87132e-10
-2.70463e-10
7.88776e-10
-4.14821e-10
9.03455e-10
-5.67719e-10
1.02982e-09
-7.27328e-10
1.16602e-09
-8.91459e-10
1.31001e-09
-1.05761e-09
1.45974e-09
-1.22285e-09
1.61333e-09
-1.38355e-09
1.76904e-09
-1.53492e-09
1.92518e-09
-1.67038e-09
2.07986e-09
-1.7811e-09
2.2306e-09
-1.85583e-09
2.374e-09
-1.88157e-09
2.50537e-09
-1.84535e-09
2.6188e-09
-1.73708e-09
2.70759e-09
-1.55265e-09
2.76505e-09
-1.29634e-09
2.78554e-09
-9.81253e-10
2.7654e-09
-6.27347e-10
2.70325e-09
-2.57388e-10
2.5981e-09
1.09775e-10
2.45494e-09
4.52165e-10
7.52583e-10
2.28032e-09
1.4143e-11
2.98978e-10
3.86944e-11
5.60083e-10
6.68803e-11
6.6746e-10
9.60639e-11
7.03194e-10
1.25196e-10
7.0318e-10
1.53947e-10
6.83073e-10
1.82405e-10
6.49732e-10
2.10972e-10
6.06132e-10
2.40338e-10
5.53463e-10
2.71495e-10
4.92019e-10
3.05755e-10
4.2159e-10
3.44783e-10
3.41615e-10
3.90616e-10
2.51266e-10
4.45701e-10
1.49444e-10
5.12965e-10
3.47275e-11
5.94344e-10
-9.30023e-11
6.90722e-10
-2.323e-10
8.0243e-10
-3.8217e-10
9.28516e-10
-5.40907e-10
1.06712e-09
-7.06324e-10
1.21582e-09
-8.76026e-10
1.37197e-09
-1.04761e-09
1.53299e-09
-1.21863e-09
1.69656e-09
-1.38642e-09
1.8607e-09
-1.54769e-09
2.02373e-09
-1.69795e-09
2.18413e-09
-1.83078e-09
2.34022e-09
-1.93719e-09
2.48977e-09
-2.00538e-09
2.62955e-09
-2.02135e-09
2.75499e-09
-1.97079e-09
2.86016e-09
-1.84226e-09
2.93829e-09
-1.63078e-09
2.98261e-09
-1.34066e-09
2.98745e-09
-9.86095e-10
2.94913e-09
-5.89029e-10
2.86621e-09
-1.74469e-10
2.73913e-09
2.36858e-10
2.57336e-09
6.1793e-10
9.49514e-10
2.37643e-09
1.42252e-11
2.84753e-10
3.84842e-11
5.35824e-10
6.60019e-11
6.39942e-10
9.42933e-11
6.74903e-10
1.2248e-10
6.74994e-10
1.50412e-10
6.55141e-10
1.78398e-10
6.21745e-10
2.07138e-10
5.77393e-10
2.37723e-10
5.22878e-10
2.71665e-10
4.58077e-10
3.10921e-10
3.82334e-10
3.57909e-10
2.94628e-10
4.15512e-10
1.93663e-10
4.87089e-10
7.78672e-11
5.75541e-10
-5.37247e-11
6.81559e-10
-1.9902e-10
8.05034e-10
-3.55775e-10
9.44567e-10
-5.21703e-10
1.09769e-09
-6.94029e-10
1.26129e-09
-8.69923e-10
1.43204e-09
-1.04678e-09
1.60676e-09
-1.22233e-09
1.7826e-09
-1.39446e-09
1.95716e-09
-1.56099e-09
2.12858e-09
-1.71911e-09
2.29537e-09
-1.86474e-09
2.45628e-09
-1.99169e-09
2.60992e-09
-2.09084e-09
2.75435e-09
-2.14981e-09
2.88652e-09
-2.15351e-09
3.00194e-09
-2.08622e-09
3.09471e-09
-1.93502e-09
3.15796e-09
-1.69403e-09
3.18491e-09
-1.36761e-09
3.16997e-09
-9.71148e-10
3.1095e-09
-5.28566e-10
3.00157e-09
-6.65318e-11
2.84875e-09
3.89674e-10
2.65736e-09
8.09316e-10
1.17079e-09
2.43609e-09
1.37553e-11
2.70998e-10
3.66352e-11
5.12944e-10
6.21351e-11
6.14442e-10
8.81046e-11
6.48933e-10
1.14e-10
6.49098e-10
1.40017e-10
6.29124e-10
1.66858e-10
5.94904e-10
1.95707e-10
5.48544e-10
2.28258e-10
4.90326e-10
2.66758e-10
4.19576e-10
3.14026e-10
3.35067e-10
3.7344e-10
2.35214e-10
4.48865e-10
1.18237e-10
5.44356e-10
-1.76236e-11
6.60748e-10
-1.70117e-10
7.97178e-10
-3.35449e-10
9.5179e-10
-5.10388e-10
1.12139e-09
-6.91302e-10
1.30206e-09
-8.74702e-10
1.48971e-09
-1.05757e-09
1.68045e-09
-1.23752e-09
1.87084e-09
-1.41271e-09
2.05801e-09
-1.58164e-09
2.23974e-09
-1.74272e-09
2.41439e-09
-1.89376e-09
2.5808e-09
-2.03115e-09
2.73803e-09
-2.14892e-09
2.88505e-09
-2.23785e-09
3.02016e-09
-2.28492e-09
3.14051e-09
-2.27387e-09
3.24168e-09
-2.18738e-09
3.3177e-09
-2.01104e-09
3.36167e-09
-1.738e-09
3.36681e-09
-1.37275e-09
3.32773e-09
-9.32068e-10
3.24116e-09
-4.41999e-10
3.104e-09
7.06255e-11
2.92129e-09
5.72386e-10
2.70092e-09
1.02969e-09
1.41863e-09
2.45308e-09
1.28087e-11
2.58189e-10
3.34065e-11
4.92346e-10
5.58137e-11
5.92035e-10
7.83924e-11
6.26355e-10
1.01106e-10
6.26385e-10
1.2468e-10
6.0555e-10
1.50417e-10
5.69167e-10
1.80212e-10
5.18749e-10
2.16608e-10
4.53931e-10
2.62839e-10
3.73345e-10
3.2283e-10
2.75075e-10
4.01133e-10
1.56911e-10
5.0284e-10
1.65297e-11
6.29475e-10
-1.44258e-10
7.79394e-10
-3.20037e-10
9.50156e-10
-5.06211e-10
1.13773e-09
-6.97959e-10
1.33729e-09
-8.90861e-10
1.54386e-09
-1.08127e-09
1.75277e-09
-1.26649e-09
1.95993e-09
-1.44468e-09
2.16192e-09
-1.61471e-09
2.3561e-09
-1.77581e-09
2.54052e-09
-1.92714e-09
2.71391e-09
-2.06714e-09
2.87545e-09
-2.19269e-09
3.02461e-09
-2.29808e-09
3.16065e-09
-2.3739e-09
3.28215e-09
-2.40642e-09
3.38639e-09
-2.3781e-09
3.46894e-09
-2.26994e-09
3.52377e-09
-2.06587e-09
3.54386e-09
-1.75809e-09
3.52245e-09
-1.35134e-09
3.45426e-09
-8.63876e-10
3.33615e-09
-3.23893e-10
3.16545e-09
2.41327e-10
2.94889e-09
7.88949e-10
2.69639e-09
1.28218e-09
1.695e-09
2.42003e-09
1.14728e-11
2.46716e-10
2.91009e-11
4.74718e-10
4.7667e-11
5.73469e-10
6.62214e-11
6.078e-10
8.54165e-11
6.0719e-10
1.06718e-10
5.84248e-10
1.3227e-10
5.43615e-10
1.64951e-10
4.86069e-10
2.08445e-10
4.10437e-10
2.67274e-10
3.14517e-10
3.46772e-10
1.95577e-10
4.52974e-10
5.07098e-11
5.88729e-10
-1.19225e-10
7.51917e-10
-3.07447e-10
9.39242e-10
-5.07362e-10
1.14573e-09
-7.12695e-10
1.36554e-09
-9.17769e-10
1.59272e-09
-1.11804e-09
1.82173e-09
-1.31029e-09
2.04774e-09
-1.4925e-09
2.26674e-09
-1.66367e-09
2.47558e-09
-1.82355e-09
2.67196e-09
-1.97219e-09
2.85431e-09
-2.1095e-09
3.02175e-09
-2.23458e-09
3.17387e-09
-2.34482e-09
3.31049e-09
-2.4347e-09
3.43119e-09
-2.4946e-09
3.53477e-09
-2.50999e-09
3.61857e-09
-2.4619e-09
3.67813e-09
-2.3295e-09
3.70724e-09
-2.09498e-09
3.69878e-09
-1.74963e-09
3.646e-09
-1.29856e-09
3.54361e-09
-7.61492e-10
3.38758e-09
-1.67862e-10
3.17805e-09
4.50864e-10
2.92329e-09
1.0437e-09
2.63546e-09
1.57002e-09
2.00166e-09
2.3288e-09
9.84304e-12
2.36873e-10
2.40499e-11
4.60511e-10
3.8389e-11
5.5913e-10
5.27766e-11
5.93413e-10
6.87515e-11
5.91215e-10
8.87573e-11
5.64242e-10
1.16062e-10
5.1631e-10
1.5485e-10
4.4728e-10
2.10296e-10
3.54991e-10
2.8853e-10
2.36283e-10
3.96661e-10
8.74454e-11
5.39423e-10
-9.20527e-11
7.1476e-10
-2.94562e-10
9.18216e-10
-5.10902e-10
1.14387e-09
-7.33014e-10
1.38476e-09
-9.53584e-10
1.63384e-09
-1.16685e-09
1.8846e-09
-1.36881e-09
2.13138e-09
-1.55707e-09
2.3695e-09
-1.73062e-09
2.59527e-09
-1.88944e-09
2.80592e-09
-2.0342e-09
2.99956e-09
-2.16582e-09
3.17504e-09
-2.28499e-09
3.3319e-09
-2.39144e-09
3.47012e-09
-2.48303e-09
3.58984e-09
-2.55442e-09
3.69094e-09
-2.59569e-09
3.77235e-09
-2.5914e-09
3.83144e-09
-2.521e-09
3.86359e-09
-2.36166e-09
3.86239e-09
-2.09378e-09
3.82056e-09
-1.7078e-09
3.73144e-09
-1.20944e-09
3.58995e-09
-6.19998e-10
3.38908e-09
3.30093e-11
3.13441e-09
7.05534e-10
2.83632e-09
1.34179e-09
2.50956e-09
1.89677e-09
2.34024e-09
2.17098e-09
8.01665e-12
2.28857e-10
1.8591e-11
4.49937e-10
2.86922e-11
5.49028e-10
3.92897e-11
5.82815e-10
5.30279e-11
5.77477e-10
7.36024e-11
5.43668e-10
1.05737e-10
4.84176e-10
1.55305e-10
3.97712e-10
2.29377e-10
2.80919e-10
3.36067e-10
1.29593e-10
4.82667e-10
-5.91547e-11
6.67843e-10
-2.77229e-10
8.85956e-10
-5.12675e-10
1.13018e-09
-7.5513e-10
1.39233e-09
-9.95164e-10
1.66413e-09
-1.22538e-09
1.93796e-09
-1.44068e-09
2.20722e-09
-1.63807e-09
2.46648e-09
-1.81633e-09
2.71141e-09
-1.97555e-09
2.93876e-09
-2.11679e-09
3.14621e-09
-2.24165e-09
3.33229e-09
-2.35191e-09
3.49631e-09
-2.449e-09
3.63817e-09
-2.5333e-09
3.75821e-09
-2.60307e-09
3.85688e-09
-2.65309e-09
3.93427e-09
-2.67308e-09
3.98942e-09
-2.64654e-09
4.0196e-09
-2.55118e-09
4.01998e-09
-2.36203e-09
3.98381e-09
-2.0576e-09
3.90354e-09
-1.62753e-09
3.77224e-09
-1.07814e-09
3.58421e-09
-4.31968e-10
3.3323e-09
2.84917e-10
3.02627e-09
1.01157e-09
2.67946e-09
1.68861e-09
2.31001e-09
2.26622e-09
2.71211e-09
1.93814e-09
6.08239e-12
2.22774e-10
1.30363e-11
4.42983e-10
1.92512e-11
5.42813e-10
2.69559e-11
5.75111e-10
4.01561e-11
5.64277e-10
6.41265e-11
5.19697e-10
1.05445e-10
4.42857e-10
1.7211e-10
3.31047e-10
2.73457e-10
1.79572e-10
4.19598e-10
-1.65481e-11
6.1097e-10
-2.50527e-10
8.41129e-10
-5.07387e-10
1.10239e-09
-7.73934e-10
1.38524e-09
-1.03799e-09
1.68003e-09
-1.28995e-09
1.97785e-09
-1.52321e-09
2.27106e-09
-1.73388e-09
2.55332e-09
-1.92033e-09
2.8196e-09
-2.08262e-09
3.06609e-09
-2.22204e-09
3.28999e-09
-2.34069e-09
3.48947e-09
-2.44113e-09
3.66349e-09
-2.52594e-09
3.81175e-09
-2.59726e-09
3.93451e-09
-2.65606e-09
4.03242e-09
-2.70098e-09
4.10618e-09
-2.72686e-09
4.15603e-09
-2.72293e-09
4.181e-09
-2.67152e-09
4.17822e-09
-2.54841e-09
4.14252e-09
-2.32632e-09
4.06673e-09
-1.98182e-09
3.94298e-09
-1.50379e-09
3.76384e-09
-8.99004e-10
3.52002e-09
-1.88149e-10
3.21009e-09
5.94848e-10
2.84558e-09
1.37608e-09
2.444e-09
2.09018e-09
2.02789e-09
2.68233e-09
3.11805e-09
1.62196e-09
4.10948e-12
2.18665e-10
7.64119e-12
4.39451e-10
1.06496e-11
5.39805e-10
1.68615e-11
5.68899e-10
3.19603e-11
5.49178e-10
6.32114e-11
4.88446e-10
1.19543e-10
3.86525e-10
2.11599e-10
2.38992e-10
3.51747e-10
3.94229e-11
5.44199e-10
-2.08999e-10
7.8245e-10
-4.88778e-10
1.05813e-09
-7.83068e-10
1.36032e-09
-1.07612e-09
1.67775e-09
-1.35542e-09
2.00007e-09
-1.61227e-09
2.31835e-09
-1.84149e-09
2.62526e-09
-2.04079e-09
2.91496e-09
-2.21003e-09
3.18297e-09
-2.35063e-09
3.42599e-09
-2.46506e-09
3.64175e-09
-2.55645e-09
3.82886e-09
-2.62824e-09
3.98672e-09
-2.68379e-09
4.11535e-09
-2.72589e-09
4.21533e-09
-2.75604e-09