/*--------------------------------*- C++ -*----------------------------------*\
  =========                 |
  \\      /  F ield         | OpenFOAM: The Open Source CFD Toolbox
   \\    /   O peration     | Website:  https://openfoam.org
    \\  /    A nd           | Version:  6
     \\/     M anipulation  |
\*---------------------------------------------------------------------------*/
FoamFile
{
    version     2.0;
    format      ascii;
    class       volScalarField;
    location    "10";
    object      phii;
}
// * * * * * * * * * * * * * * * * * * * * * * * * * * * * * * * * * * * * * //

dimensions      [1 2 -3 0 0 -1 0];

internalField   nonuniform List<scalar> 
8800
(
24.3554
24.3618
24.3729
24.3882
24.4077
24.4314
24.4592
24.4912
24.5273
24.5675
24.6115
24.6594
24.7111
24.7664
24.8251
24.8872
24.9524
25.0207
25.0918
25.1654
25.2415
25.3197
25.3997
25.4814
25.5643
25.6482
25.7327
25.8175
25.9023
25.9866
26.07
26.1524
26.2332
26.3121
26.3889
26.4631
26.5345
26.6026
26.6672
26.7278
71.5894
71.6068
71.6389
71.6843
71.7428
71.8141
71.8982
71.9948
72.1038
72.225
72.3582
72.5029
72.659
72.826
73.0035
73.1912
73.3884
73.5948
73.8096
74.0324
74.2623
74.4988
74.7409
74.9877
75.2386
75.4924
75.7482
76.005
76.2617
76.5173
76.7705
77.0204
77.2658
77.5057
77.7391
77.9649
78.182
78.3894
78.5859
78.7704
117.415
117.443
117.496
117.571
117.669
117.788
117.929
118.091
118.273
118.477
118.7
118.943
119.204
119.485
119.782
120.097
120.428
120.775
121.135
121.509
121.895
122.292
122.698
123.113
123.534
123.961
124.391
124.823
125.255
125.685
126.111
126.532
126.946
127.351
127.745
128.126
128.492
128.842
129.174
129.486
161.9
161.939
162.012
162.118
162.255
162.422
162.62
162.848
163.106
163.392
163.706
164.049
164.417
164.812
165.232
165.676
166.143
166.631
167.14
167.668
168.212
168.773
169.346
169.932
170.527
171.13
171.738
172.348
172.959
173.568
174.172
174.769
175.355
175.929
176.488
177.029
177.549
178.046
178.518
178.961
205.112
205.161
205.256
205.392
205.568
205.785
206.041
206.336
206.669
207.039
207.446
207.889
208.367
208.878
209.422
209.998
210.602
211.236
211.895
212.579
213.286
214.012
214.757
215.517
216.29
217.073
217.863
218.657
219.452
220.245
221.031
221.808
222.573
223.322
224.051
224.757
225.436
226.085
226.701
227.28
247.115
247.176
247.291
247.458
247.675
247.941
248.256
248.618
249.028
249.484
249.985
250.531
251.119
251.749
252.419
253.128
253.874
254.655
255.468
256.312
257.184
258.081
259.001
259.94
260.896
261.864
262.841
263.824
264.809
265.791
266.766
267.73
268.679
269.608
270.513
271.391
272.235
273.043
273.809
274.529
287.972
288.044
288.181
288.379
288.637
288.954
289.328
289.76
290.247
290.79
291.387
292.037
292.738
293.489
294.288
295.133
296.023
296.955
297.926
298.934
299.975
301.048
302.147
303.271
304.414
305.574
306.745
307.923
309.103
310.281
311.452
312.61
313.75
314.867
315.956
317.012
318.028
319.001
319.924
320.791
327.743
327.827
327.986
328.216
328.516
328.883
329.318
329.82
330.387
331.018
331.712
332.468
333.284
334.159
335.09
336.075
337.112
338.199
339.332
340.508
341.725
342.978
344.263
345.576
346.914
348.271
349.643
351.024
352.408
353.79
355.163
356.523
357.863
359.176
360.457
361.699
362.896
364.041
365.128
366.15
366.485
366.581
366.762
367.025
367.367
367.787
368.284
368.856
369.504
370.225
371.019
371.884
372.818
373.819
374.885
376.014
377.202
378.448
379.748
381.098
382.495
383.934
385.412
386.923
388.462
390.025
391.605
393.196
394.792
396.387
397.973
399.544
401.092
402.61
404.092
405.53
406.916
408.243
409.503
410.688
404.252
404.36
404.565
404.861
405.246
405.719
406.279
406.924
407.654
408.468
409.363
410.339
411.394
412.525
413.729
415.006
416.351
417.761
419.233
420.763
422.346
423.979
425.656
427.372
429.122
430.898
432.696
434.507
436.325
438.142
439.951
441.742
443.51
445.244
446.937
448.581
450.166
451.685
453.127
454.485
441.096
441.217
441.445
441.775
442.204
442.731
443.355
444.075
444.889
445.797
446.797
447.887
449.065
450.329
451.677
453.106
454.612
456.192
457.842
459.558
461.336
463.17
465.055
466.985
468.954
470.954
472.98
475.021
477.072
479.123
481.165
483.189
485.187
487.148
489.065
490.926
492.723
494.444
496.08
497.621
477.066
477.199
477.451
477.815
478.289
478.871
479.561
480.356
481.257
482.262
483.369
484.576
485.882
487.284
488.779
490.365
492.038
493.794
495.629
497.539
499.519
501.563
503.665
505.818
508.017
510.252
512.516
514.8
517.096
519.392
521.68
523.95
526.191
528.393
530.546
532.638
534.658
536.595
538.438
540.174
512.205
512.351
512.627
513.026
513.546
514.185
514.942
515.815
516.805
517.909
519.125
520.453
521.891
523.434
525.082
526.831
528.677
530.616
532.644
534.756
536.946
539.209
541.539
543.927
546.366
548.848
551.364
553.903
556.456
559.012
561.56
564.089
566.588
569.045
571.448
573.786
576.045
578.212
580.275
582.22
546.556
546.715
547.016
547.451
548.018
548.714
549.54
550.493
551.574
552.78
554.11
555.562
557.135
558.826
560.631
562.549
564.574
566.704
568.932
571.255
573.666
576.159
578.727
581.361
584.054
586.796
589.576
592.385
595.21
598.041
600.864
603.669
606.441
609.169
611.839
614.439
616.952
619.366
621.665
623.833
580.159
580.331
580.657
581.128
581.743
582.498
583.394
584.43
585.604
586.915
588.362
589.942
591.655
593.498
595.467
597.56
599.772
602.1
604.538
607.081
609.723
612.457
615.275
618.169
621.129
624.144
627.205
630.298
633.412
636.534
639.65
642.747
645.811
648.828
651.783
654.662
657.449
660.127
662.68
665.09
613.05
613.235
613.585
614.094
614.757
615.573
616.542
617.661
618.931
620.35
621.918
623.631
625.489
627.489
629.628
631.903
634.31
636.844
639.501
642.274
645.158
648.145
651.226
654.393
657.634
660.94
664.297
667.692
671.113
674.544
677.971
681.38
684.755
688.08
691.341
694.52
697.601
700.564
703.391
706.062
645.261
645.459
645.835
646.381
647.094
647.972
649.015
650.221
651.59
653.12
654.812
656.662
658.67
660.833
663.148
665.612
668.221
670.971
673.857
676.871
680.009
683.261
686.619
690.074
693.613
697.225
700.896
704.612
708.358
712.119
715.879
719.62
723.328
726.985
730.574
734.076
737.473
740.744
743.868
746.822
676.823
677.034
677.436
678.021
678.784
679.726
680.844
682.139
683.61
685.255
687.074
689.066
691.229
693.561
696.058
698.719
701.539
704.514
707.637
710.905
714.308
717.84
721.489
725.247
729.101
733.037
737.042
741.099
745.193
749.305
753.42
757.518
761.583
765.596
769.538
773.39
777.13
780.735
784.181
787.444
707.764
707.988
708.416
709.039
709.855
710.861
712.058
713.443
715.018
716.782
718.733
720.871
723.193
725.7
728.387
731.252
734.291
737.499
740.872
744.403
748.086
751.91
755.867
759.945
764.132
768.412
772.771
777.191
781.655
786.144
790.639
795.12
799.569
803.966
808.29
812.52
816.633
820.601
824.399
827.999
738.109
738.345
738.8
739.463
740.331
741.403
742.679
744.158
745.84
747.725
749.811
752.099
754.588
757.274
760.157
763.234
766.5
769.953
773.586
777.393
781.367
785.5
789.78
794.196
798.734
803.379
808.114
812.921
817.78
822.672
827.575
832.469
837.333
842.145
846.884
851.525
856.043
860.409
864.593
868.562
767.878
768.128
768.609
769.312
770.234
771.374
772.731
774.305
776.097
778.106
780.332
782.774
785.433
788.305
791.391
794.686
798.189
801.895
805.799
809.894
814.174
818.63
823.25
828.022
832.931
837.963
843.098
848.318
853.6
858.924
864.266
869.605
874.917
880.18
885.37
890.461
895.423
900.224
904.831
909.207
797.093
797.356
797.864
798.607
799.584
800.792
802.232
803.903
805.807
807.943
810.312
812.913
815.746
818.811
822.105
825.627
829.375
833.343
837.529
841.925
846.525
851.318
856.295
861.442
866.745
872.186
877.747
883.406
889.141
894.928
900.743
906.563
912.362
918.116
923.798
929.381
934.831
940.112
945.186
950.011
825.77
826.046
826.581
827.365
828.397
829.675
831.199
832.969
834.987
837.253
839.768
842.531
845.544
848.806
852.315
856.071
860.071
864.312
868.79
873.499
878.431
883.579
888.93
894.472
900.189
906.064
912.077
918.205
924.424
930.709
937.035
943.375
949.703
955.993
962.216
968.34
974.328
980.14
985.732
991.054
853.924
854.213
854.775
855.601
856.688
858.037
859.646
861.517
863.651
866.049
868.712
871.641
874.838
878.301
882.031
886.027
890.288
894.811
899.591
904.625
909.904
915.421
921.164
927.121
933.275
939.608
946.1
952.728
959.465
966.286
973.163
980.068
986.973
993.85
1000.67
1007.39
1013.97
1020.38
1026.54
1032.42
881.567
881.87
882.458
883.326
884.47
885.889
887.584
889.557
891.808
894.341
897.155
900.253
903.637
907.306
911.262
915.505
920.034
924.846
929.94
935.31
940.949
946.85
953.003
959.393
966.006
972.824
979.824
986.983
994.275
1001.67
1009.14
1016.66
1024.2
1031.72
1039.2
1046.58
1053.83
1060.89
1067.7
1074.19
908.71
909.026
909.642
910.551
911.751
913.241
915.023
917.099
919.469
922.137
925.105
928.374
931.948
935.827
940.014
944.509
949.313
954.423
959.838
965.555
971.567
977.867
984.445
991.289
998.384
1005.71
1013.25
1020.97
1028.86
1036.87
1044.99
1053.18
1061.41
1069.64
1077.84
1085.97
1093.96
1101.76
1109.29
1116.48
935.361
935.69
936.333
937.283
938.54
940.102
941.971
944.149
946.639
949.444
952.566
956.009
959.775
963.868
968.29
973.042
978.125
983.541
989.286
995.359
1001.75
1008.47
1015.49
1022.8
1030.4
1038.26
1046.37
1054.69
1063.21
1071.89
1080.7
1089.62
1098.61
1107.63
1116.64
1125.59
1134.42
1143.05
1151.4
1159.36
961.526
961.868
962.538
963.53
964.843
966.476
968.432
970.714
973.324
976.266
979.543
983.16
987.121
991.43
996.089
1001.1
1006.47
1012.2
1018.28
1024.72
1031.51
1038.64
1046.12
1053.92
1062.05
1070.47
1079.17
1088.13
1097.32
1106.72
1116.28
1125.99
1135.81
1145.71
1155.62
1165.5
1175.28
1184.85
1194.12
1202.97
987.21
987.565
988.262
989.295
990.664
992.368
994.411
996.795
999.525
1002.6
1006.04
1009.83
1013.99
1018.51
1023.41
1028.69
1034.34
1040.38
1046.81
1053.62
1060.81
1068.38
1076.33
1084.64
1093.3
1102.31
1111.64
1121.27
1131.17
1141.33
1151.71
1162.29
1173.02
1183.88
1194.82
1205.75
1216.59
1227.24
1237.56
1247.42
1012.42
1012.78
1013.51
1014.58
1016.01
1017.78
1019.91
1022.39
1025.24
1028.46
1032.05
1036.02
1040.37
1045.11
1050.25
1055.79
1061.74
1068.1
1074.87
1082.05
1089.65
1097.67
1106.09
1114.92
1124.15
1133.76
1143.74
1154.07
1164.73
1175.71
1186.96
1198.48
1210.23
1222.17
1234.24
1246.36
1258.43
1270.31
1281.84
1292.86
1037.15
1037.53
1038.28
1039.39
1040.87
1042.71
1044.93
1047.51
1050.48
1053.83
1057.57
1061.71
1066.26
1071.22
1076.6
1082.41
1088.65
1095.32
1102.44
1110
1118.02
1126.48
1135.39
1144.75
1154.55
1164.78
1175.44
1186.5
1197.97
1209.8
1222
1234.54
1247.4
1260.54
1273.89
1287.37
1300.85
1314.15
1327.08
1339.43
1061.4
1061.8
1062.57
1063.72
1065.25
1067.17
1069.46
1072.15
1075.23
1078.71
1082.61
1086.92
1091.67
1096.84
1102.46
1108.53
1115.05
1122.05
1129.51
1137.45
1145.88
1154.79
1164.19
1174.08
1184.47
1195.34
1206.69
1218.52
1230.81
1243.57
1256.77
1270.42
1284.5
1298.96
1313.76
1328.79
1343.89
1358.86
1373.43
1387.34
1085.18
1085.59
1086.39
1087.58
1089.16
1091.14
1093.52
1096.3
1099.49
1103.11
1107.16
1111.64
1116.57
1121.96
1127.81
1134.14
1140.95
1148.26
1156.06
1164.38
1173.21
1182.57
1192.47
1202.9
1213.87
1225.38
1237.45
1250.06
1263.22
1276.93
1291.2
1306.04
1321.44
1337.39
1353.82
1370.62
1387.61
1404.52
1421.04
1436.8
1108.49
1108.9
1109.73
1110.95
1112.59
1114.63
1117.08
1119.96
1123.27
1127.01
1131.2
1135.85
1140.97
1146.56
1152.65
1159.23
1166.32
1173.93
1182.07
1190.76
1200
1209.8
1220.18
1231.14
1242.7
1254.86
1267.64
1281.05
1295.09
1309.8
1325.19
1341.3
1358.14
1375.71
1393.98
1412.81
1432
1451.24
1470.1
1488.09
1131.31
1131.74
1132.58
1133.85
1135.53
1137.63
1140.16
1143.13
1146.54
1150.41
1154.75
1159.56
1164.85
1170.65
1176.95
1183.78
1191.14
1199.05
1207.52
1216.57
1226.2
1236.43
1247.29
1258.77
1270.91
1283.71
1297.2
1311.41
1326.35
1342.08
1358.63
1376.07
1394.45
1413.8
1434.11
1455.26
1477.04
1499.07
1520.8
1541.54
1153.66
1154.09
1154.96
1156.25
1157.98
1160.14
1162.75
1165.81
1169.32
1173.31
1177.78
1182.75
1188.22
1194.2
1200.72
1207.79
1215.41
1223.61
1232.39
1241.78
1251.79
1262.44
1273.75
1285.75
1298.44
1311.87
1326.07
1341.06
1356.89
1373.64
1391.37
1410.19
1430.18
1451.44
1474
1497.78
1522.59
1548.01
1573.35
1597.61
1175.51
1175.96
1176.85
1178.18
1179.95
1182.16
1184.84
1187.98
1191.59
1195.7
1200.3
1205.41
1211.05
1217.22
1223.94
1231.23
1239.1
1247.57
1256.65
1266.37
1276.74
1287.79
1299.53
1312.01
1325.25
1339.28
1354.14
1369.89
1386.6
1404.35
1423.25
1443.45
1465.1
1488.36
1513.33
1540.04
1568.38
1597.94
1627.92
1656.9
1196.89
1197.34
1198.25
1199.61
1201.42
1203.69
1206.43
1209.65
1213.36
1217.57
1222.29
1227.54
1233.33
1239.68
1246.59
1254.09
1262.2
1270.92
1280.28
1290.31
1301.01
1312.43
1324.59
1337.52
1351.26
1365.85
1381.35
1397.82
1415.35
1434.06
1454.09
1475.64
1498.92
1524.19
1551.66
1581.53
1613.85
1648.43
1684.51
1720.23
1217.77
1218.23
1219.16
1220.54
1222.39
1224.71
1227.51
1230.81
1234.6
1238.91
1243.75
1249.13
1255.07
1261.57
1268.67
1276.36
1284.68
1293.64
1303.26
1313.57
1324.59
1336.35
1348.89
1362.23
1376.44
1391.54
1407.62
1424.75
1443.03
1462.62
1483.69
1506.49
1531.32
1558.5
1588.41
1621.46
1658.05
1698.47
1742.54
1788.57
1238.15
1238.63
1239.57
1240.98
1242.86
1245.23
1248.09
1251.45
1255.32
1259.73
1264.67
1270.17
1276.24
1282.9
1290.15
1298.03
1306.54
1315.72
1325.58
1336.14
1347.44
1359.51
1372.39
1386.1
1400.72
1416.28
1432.87
1450.58
1469.53
1489.89
1511.87
1535.77
1561.94
1590.8
1622.88
1658.82
1699.48
1745.97
1799.79
1862.01
26.7842
26.8359
26.8827
26.9242
26.9601
26.9903
27.0146
27.0329
27.0451
27.0512
27.0512
27.0451
27.0329
27.0146
26.9903
26.9601
26.9242
26.8827
26.8359
26.7842
78.9419
79.0994
79.2418
79.3682
79.4778
79.57
79.6443
79.7002
79.7376
79.7563
79.7562
79.7376
79.7002
79.6443
79.57
79.4778
79.3682
79.2417
79.0993
78.9419
129.776
130.042
130.283
130.496
130.682
130.838
130.964
131.059
131.122
131.154
131.154
131.122
131.059
130.964
130.838
130.682
130.496
130.283
130.042
129.776
179.373
179.751
180.093
180.397
180.661
180.883
181.062
181.198
181.288
181.333
181.333
181.288
181.198
181.062
180.883
180.661
180.397
180.093
179.751
179.372
227.818
228.313
228.76
229.158
229.503
229.794
230.029
230.206
230.325
230.384
230.384
230.325
230.206
230.029
229.794
229.503
229.158
228.76
228.313
227.818
275.199
275.814
276.371
276.867
277.297
277.66
277.952
278.173
278.321
278.395
278.395
278.321
278.173
277.952
277.66
277.297
276.867
276.371
275.814
275.198
321.599
322.341
323.013
323.61
324.13
324.567
324.92
325.187
325.366
325.455
325.455
325.366
325.187
324.92
324.567
324.129
323.61
323.012
322.34
321.598
367.102
367.977
368.77
369.475
370.087
370.604
371.021
371.336
371.547
371.653
371.652
371.547
371.336
371.021
370.604
370.087
369.474
368.769
367.977
367.102
411.792
412.807
413.727
414.545
415.257
415.856
416.341
416.707
416.952
417.075
417.075
416.952
416.707
416.341
415.856
415.256
414.545
413.727
412.807
411.792
455.75
456.914
457.968
458.907
459.723
460.411
460.967
461.387
461.668
461.809
461.809
461.668
461.386
460.966
460.411
459.723
458.907
457.968
456.913
455.75
499.057
500.379
501.577
502.643
503.57
504.352
504.984
505.462
505.782
505.942
505.942
505.782
505.462
504.984
504.352
503.57
502.643
501.576
500.378
499.057
541.792
543.282
544.634
545.837
546.883
547.766
548.479
549.018
549.379
549.56
549.56
549.379
549.018
548.479
547.766
546.883
545.836
544.633
543.282
541.792
584.033
585.704
587.22
588.57
589.744
590.735
591.536
592.141
592.547
592.75
592.75
592.547
592.141
591.536
590.735
589.744
588.569
587.219
585.704
584.033
625.858
627.723
629.416
630.924
632.236
633.344
634.24
634.916
635.37
635.598
635.598
635.37
634.916
634.239
633.344
632.236
630.923
629.415
627.722
625.857
667.341
669.416
671.301
672.98
674.443
675.677
676.675
677.429
677.935
678.188
678.188
677.935
677.429
676.675
675.677
674.442
672.98
671.3
669.415
667.34
708.558
710.862
712.954
714.82
716.445
717.817
718.926
719.765
720.327
720.609
720.609
720.327
719.765
718.926
717.817
716.445
714.82
712.954
710.861
708.558
749.586
752.137
754.457
756.526
758.328
759.85
761.08
762.011
762.635
762.947
762.947
762.634
762.01
761.08
759.849
758.327
756.525
754.456
752.137
749.585
790.499
793.321
795.888
798.178
800.174
801.86
803.223
804.254
804.946
805.292
805.292
804.945
804.254
803.223
801.86
800.174
798.178
795.887
793.32
790.498
831.372
834.491
837.329
839.863
842.071
843.936
845.445
846.586
847.351
847.735
847.735
847.351
846.585
845.444
843.936
842.07
839.862
837.329
834.491
831.372
872.285
875.729
878.865
881.665
884.106
886.168
887.836
889.098
889.944
890.368
890.368
889.944
889.097
887.836
886.168
884.105
881.664
878.864
875.728
872.284
913.315
917.117
920.581
923.674
926.371
928.649
930.493
931.887
932.821
933.29
933.29
932.821
931.886
930.492
928.649
926.37
923.673
920.58
917.117
913.314
954.544
958.742
962.567
965.983
968.962
971.479
973.514
975.053
976.086
976.603
976.603
976.085
975.053
973.514
971.478
968.962
965.983
962.566
958.741
954.543
996.057
1000.69
1004.92
1008.69
1011.98
1014.76
1017.01
1018.7
1019.84
1020.41
1020.41
1019.84
1018.7
1017.01
1014.76
1011.98
1008.69
1004.92
1000.69
996.056
1037.95
1043.07
1047.74
1051.9
1055.53
1058.6
1061.08
1062.95
1064.21
1064.83
1064.83
1064.21
1062.95
1061.08
1058.6
1055.53
1051.9
1047.74
1043.07
1037.95
1080.31
1085.97
1091.13
1095.73
1099.74
1103.12
1105.85
1107.91
1109.29
1109.99
1109.99
1109.29
1107.91
1105.85
1103.12
1099.74
1095.73
1091.13
1085.97
1080.3
1123.24
1129.51
1135.21
1140.3
1144.72
1148.45
1151.45
1153.72
1155.24
1156
1156
1155.24
1153.72
1151.45
1148.45
1144.72
1140.3
1135.21
1129.51
1123.24
1166.86
1173.81
1180.12
1185.74
1190.61
1194.71
1198.02
1200.5
1202.17
1203
1203
1202.16
1200.5
1198.02
1194.71
1190.61
1185.74
1180.12
1173.8
1166.86
1211.3
1219
1225.99
1232.19
1237.57
1242.07
1245.69
1248.41
1250.23
1251.13
1251.13
1250.23
1248.41
1245.69
1242.07
1237.57
1232.19
1225.99
1219
1211.3
1256.69
1265.24
1272.98
1279.83
1285.74
1290.68
1294.63
1297.6
1299.57
1300.55
1300.55
1299.57
1297.59
1294.63
1290.68
1285.74
1279.83
1272.98
1265.24
1256.69
1303.19
1312.71
1321.28
1328.84
1335.32
1340.71
1345.01
1348.22
1350.34
1351.41
1351.41
1350.34
1348.22
1345.01
1340.71
1335.32
1328.84
1321.28
1312.71
1303.19
1351
1361.6
1371.1
1379.42
1386.51
1392.36
1397
1400.44
1402.72
1403.85
1403.85
1402.72
1400.44
1397
1392.36
1386.51
1379.42
1371.1
1361.6
1351
1400.33
1412.16
1422.68
1431.81
1439.52
1445.82
1450.78
1454.43
1456.84
1458.03
1458.03
1456.84
1454.43
1450.78
1445.82
1439.52
1431.81
1422.68
1412.16
1400.33
1451.45
1464.68
1476.32
1486.29
1494.6
1501.32
1506.54
1510.36
1512.86
1514.1
1514.1
1512.86
1510.36
1506.54
1501.32
1494.6
1486.29
1476.32
1464.68
1451.45
1504.7
1519.54
1532.38
1543.19
1552.03
1559.07
1564.47
1568.38
1570.91
1572.16
1572.16
1570.91
1568.38
1564.47
1559.07
1552.03
1543.18
1532.38
1519.54
1504.7
1560.54
1577.22
1591.31
1602.87
1612.11
1619.3
1624.73
1628.61
1631.1
1632.32
1632.32
1631.1
1628.61
1624.73
1619.3
1612.11
1602.87
1591.31
1577.22
1560.54
1619.61
1638.4
1653.7
1665.79
1675.14
1682.23
1687.47
1691.15
1693.49
1694.63
1694.63
1693.49
1691.15
1687.47
1682.23
1675.14
1665.79
1653.7
1638.4
1619.61
1682.9
1704.05
1720.3
1732.45
1741.43
1748.02
1752.75
1756.03
1758.08
1759.08
1759.08
1758.08
1756.03
1752.75
1748.02
1741.43
1732.45
1720.3
1704.05
1682.9
1752.09
1775.68
1792.06
1803.35
1811.21
1816.72
1820.58
1823.19
1824.82
1825.6
1825.6
1824.82
1823.19
1820.58
1816.72
1811.21
1803.35
1792.06
1775.68
1752.09
1830.72
1855.67
1870.08
1878.84
1884.47
1888.23
1890.79
1892.49
1893.54
1894.04
1894.04
1893.54
1892.49
1890.79
1888.23
1884.47
1878.84
1870.08
1855.67
1830.72
1927.77
1947.43
1954.98
1958.67
1960.8
1962.16
1963.07
1963.66
1964.02
1964.19
1964.19
1964.02
1963.66
1963.07
1962.16
1960.8
1958.67
1954.98
1947.43
1927.77
26.7278
26.6672
26.6026
26.5345
26.4631
26.3888
26.3121
26.2331
26.1523
26.07
25.9865
25.9022
25.8175
25.7327
25.6481
25.5642
25.4813
25.3997
25.3196
25.2414
25.1654
25.0917
25.0206
24.9523
24.8871
24.825
24.7663
24.711
24.6594
24.6114
24.5674
24.5273
24.4912
24.4592
24.4313
24.4076
24.3881
24.3728
24.3617
24.3553
78.7704
78.5858
78.3893
78.1819
77.9648
77.739
77.5056
77.2657
77.0202
76.7704
76.5171
76.2616
76.0049
75.748
75.4922
75.2384
74.9875
74.7406
74.4985
74.2621
74.0322
73.8094
73.5945
73.3882
73.1909
73.0033
72.8257
72.6587
72.5027
72.3579
72.2248
72.1035
71.9945
71.8979
71.8139
71.7426
71.6841
71.6386
71.6065
71.5891
129.486
129.174
128.842
128.492
128.126
127.744
127.351
126.946
126.532
126.111
125.685
125.255
124.823
124.391
123.961
123.534
123.113
122.698
122.292
121.895
121.509
121.135
120.774
120.428
120.097
119.782
119.484
119.204
118.942
118.699
118.476
118.273
118.09
117.928
117.787
117.668
117.571
117.495
117.442
117.414
178.961
178.518
178.046
177.549
177.029
176.488
175.929
175.355
174.768
174.172
173.568
172.959
172.348
171.737
171.129
170.527
169.931
169.346
168.772
168.212
167.667
167.14
166.631
166.142
165.676
165.232
164.812
164.417
164.048
163.706
163.391
163.105
162.848
162.62
162.422
162.254
162.117
162.011
161.938
161.899
227.28
226.701
226.085
225.436
224.756
224.05
223.321
222.573
221.808
221.031
220.244
219.452
218.657
217.863
217.073
216.29
215.517
214.756
214.012
213.285
212.578
211.894
211.235
210.602
209.997
209.422
208.878
208.366
207.888
207.445
207.038
206.668
206.335
206.04
205.784
205.567
205.391
205.255
205.161
205.111
274.529
273.808
273.042
272.235
271.39
270.513
269.607
268.678
267.729
266.765
265.79
264.808
263.824
262.841
261.863
260.895
259.94
259
258.081
257.183
256.311
255.467
254.654
253.873
253.127
252.418
251.748
251.118
250.53
249.984
249.483
249.027
248.617
248.255
247.94
247.674
247.457
247.29
247.175
247.114
320.791
319.923
319
318.028
317.011
315.955
314.866
313.749
312.609
311.451
310.281
309.103
307.922
306.744
305.573
304.413
303.27
302.147
301.047
299.975
298.933
297.925
296.954
296.022
295.132
294.287
293.488
292.737
292.035
291.386
290.789
290.246
289.758
289.327
288.953
288.636
288.378
288.18
288.043
287.97
366.15
365.127
364.04
362.895
361.698
360.456
359.175
357.862
356.522
355.163
353.789
352.407
351.023
349.642
348.271
346.913
345.575
344.262
342.976
341.724
340.507
339.331
338.198
337.111
336.074
335.089
334.158
333.283
332.467
331.711
331.017
330.385
329.818
329.317
328.882
328.514
328.215
327.984
327.825
327.741
410.688
409.502
408.242
406.915
405.529
404.092
402.61
401.091
399.543
397.972
396.386
394.791
393.195
391.604
390.024
388.461
386.921
385.41
383.933
382.494
381.097
379.747
378.447
377.201
376.012
374.883
373.817
372.816
371.883
371.018
370.224
369.503
368.855
368.282
367.785
367.366
367.024
366.761
366.579
366.483
454.485
453.127
451.684
450.166
448.58
446.937
445.243
443.509
441.742
439.95
438.141
436.324
434.506
432.695
430.897
429.12
427.371
425.655
423.977
422.345
420.761
419.231
417.759
416.349
415.004
413.728
412.523
411.392
410.338
409.362
408.466
407.653
406.922
406.277
405.717
405.244
404.859
404.563
404.359
404.25
497.621
496.08
494.443
492.722
490.925
489.064
487.148
485.186
483.188
481.164
479.122
477.071
475.02
472.978
470.953
468.952
466.983
465.053
463.168
461.334
459.557
457.841
456.19
454.61
453.104
451.676
450.328
449.063
447.885
446.795
445.795
444.887
444.073
443.353
442.729
442.202
441.773
441.443
441.215
441.095
540.173
538.437
536.595
534.657
532.637
530.545
528.392
526.19
523.949
521.679
519.391
517.094
514.799
512.515
510.251
508.015
505.817
503.663
501.561
499.517
497.538
495.627
493.792
492.036
490.363
488.777
487.282
485.88
484.574
483.367
482.26
481.255
480.355
479.559
478.869
478.287
477.813
477.449
477.197
477.064
582.219
580.274
578.211
576.044
573.785
571.447
569.044
566.587
564.088
561.559
559.011
556.455
553.902
551.362
548.847
546.365
543.925
541.537
539.208
536.944
534.754
532.642
530.614
528.675
526.829
525.08
523.432
521.889
520.451
519.123
517.906
516.803
515.813
514.939
514.183
513.544
513.024
512.625
512.349
512.203
623.833
621.664
619.365
616.951
614.438
611.838
609.168
606.44
603.667
600.863
598.039
595.209
592.383
589.575
586.794
584.052
581.36
578.725
576.157
573.664
571.253
568.93
566.702
564.572
562.546
560.629
558.823
557.133
555.56
554.107
552.777
551.571
550.491
549.537
548.712
548.015
547.449
547.014
546.713
546.554
665.089
662.679
660.126
657.448
654.661
651.782
648.827
645.81
642.746
639.649
636.533
633.411
630.297
627.203
624.143
621.127
618.167
615.273
612.455
609.721
607.079
604.536
602.098
599.77
597.558
595.465
593.496
591.653
589.94
588.359
586.912
585.601
584.427
583.392
582.496
581.74
581.126
580.654
580.329
580.157
706.061
703.39
700.563
697.6
694.519
691.34
688.079
684.753
681.379
677.97
674.543
671.111
667.691
664.295
660.938
657.633
654.391
651.224
648.143
645.156
642.272
639.499
636.842
634.307
631.9
629.626
627.487
625.487
623.629
621.915
620.348
618.929
617.659
616.539
615.571
614.754
614.091
613.583
613.232
613.047
746.821
743.867
740.744
737.472
734.075
730.573
726.984
723.327
719.619
715.877
712.118
708.357
704.61
700.894
697.223
693.611
690.072
686.617
683.259
680.006
676.869
673.854
670.969
668.219
665.61
663.145
660.83
658.667
656.66
654.809
653.118
651.587
650.218
649.012
647.97
647.092
646.379
645.832
645.456
645.259
787.443
784.18
780.734
777.129
773.389
769.537
765.595
761.582
757.517
753.418
749.304
745.191
741.097
737.04
733.035
729.099
725.245
721.487
717.837
714.306
710.902
707.635
704.511
701.536
698.716
696.056
693.558
691.226
689.063
687.072
685.252
683.607
682.136
680.842
679.723
678.782
678.018
677.433
677.031
676.821
827.998
824.398
820.6
816.632
812.519
808.289
803.965
799.568
795.119
790.637
786.142
781.653
777.189
772.769
768.41
764.129
759.943
755.865
751.908
748.083
744.401
740.869
737.496
734.288
731.249
728.384
725.697
723.191
720.868
718.73
716.779
715.015
713.44
712.055
710.858
709.852
709.037
708.413
707.985
707.761
868.561
864.592
860.408
856.042
851.524
846.883
842.144
837.331
832.468
827.574
822.67
817.779
812.919
808.112
803.376
798.731
794.193
789.777
785.497
781.365
777.39
773.583
769.95
766.497
763.231
760.154
757.271
754.585
752.096
749.808
747.722
745.837
744.155
742.676
741.4
740.328
739.46
738.797
738.342
738.106
909.206
904.83
900.223
895.422
890.459
885.369
880.179
874.915
869.603
864.264
858.922
853.598
848.316
843.096
837.961
832.929
828.019
823.247
818.627
814.172
809.891
805.796
801.892
798.186
794.683
791.388
788.302
785.429
782.771
780.328
778.102
776.094
774.302
772.728
771.371
770.231
769.309
768.606
768.125
767.875
950.01
945.185
940.111
934.83
929.38
923.797
918.114
912.36
906.561
900.742
894.926
889.139
883.404
877.745
872.184
866.742
861.44
856.292
851.315
846.522
841.922
837.526
833.34
829.371
825.624
822.102
818.808
815.743
812.91
810.309
807.94
805.804
803.9
802.229
800.789
799.581
798.604
797.86
797.353
797.09
991.053
985.731
980.139
974.327
968.338
962.214
955.991
949.701
943.373
937.033
930.707
924.422
918.202
912.074
906.062
900.187
894.469
888.927
883.576
878.428
873.496
868.787
864.309
860.067
856.067
852.311
848.802
845.541
842.528
839.764
837.25
834.984
832.966
831.196
829.672
828.394
827.362
826.577
826.043
825.767
1032.42
1026.54
1020.38
1013.97
1007.39
1000.67
993.849
986.971
980.066
973.161
966.284
959.463
952.725
946.098
939.606
933.272
927.118
921.161
915.418
909.901
904.622
899.588
894.807
890.285
886.024
882.028
878.297
874.834
871.638
868.709
866.045
863.647
861.513
859.642
858.033
856.685
855.598
854.772
854.21
853.921
1074.19
1067.7
1060.89
1053.83
1046.58
1039.19
1031.72
1024.2
1016.66
1009.14
1001.67
994.273
986.981
979.822
972.821
966.003
959.39
952.999
946.847
940.946
935.306
929.937
924.843
920.03
915.502
911.259
907.303
903.633
900.25
897.152
894.337
891.805
889.553
887.581
885.885
884.466
883.323
882.455
881.866
881.564
1116.47
1109.29
1101.76
1093.96
1085.96
1077.84
1069.64
1061.4
1053.18
1044.99
1036.87
1028.86
1020.97
1013.25
1005.71
998.381
991.286
984.442
977.863
971.563
965.551
959.835
954.42
949.309
944.506
940.01
935.824
931.944
928.371
925.101
922.133
919.466
917.095
915.02
913.238
911.747
910.547
909.638
909.022
908.706
1159.36
1151.39
1143.05
1134.42
1125.59
1116.64
1107.63
1098.61
1089.62
1080.7
1071.89
1063.21
1054.69
1046.37
1038.26
1030.4
1022.8
1015.48
1008.46
1001.75
995.355
989.283
983.537
978.122
973.038
968.286
963.864
959.772
956.005
952.563
949.44
946.636
944.146
941.968
940.098
938.536
937.28
936.329
935.686
935.357
1202.97
1194.12
1184.85
1175.28
1165.5
1155.62
1145.7
1135.81
1125.99
1116.28
1106.71
1097.32
1088.13
1079.17
1070.47
1062.04
1053.92
1046.12
1038.64
1031.5
1024.71
1018.28
1012.19
1006.47
1001.1
996.085
991.426
987.118
983.157
979.539
976.262
973.32
970.71
968.429
966.473
964.839
963.526
962.534
961.864
961.522
1247.42
1237.56
1227.24
1216.59
1205.75
1194.81
1183.88
1173.02
1162.28
1151.71
1141.33
1131.17
1121.26
1111.63
1102.31
1093.3
1084.63
1076.32
1068.38
1060.81
1053.62
1046.81
1040.38
1034.34
1028.68
1023.41
1018.51
1013.98
1009.83
1006.03
1002.6
999.521
996.792
994.407
992.365
990.66
989.292
988.258
987.561
987.207
1292.86
1281.84
1270.31
1258.43
1246.36
1234.23
1222.16
1210.23
1198.48
1186.96
1175.7
1164.73
1154.07
1143.74
1133.75
1124.14
1114.92
1106.09
1097.66
1089.65
1082.05
1074.86
1068.09
1061.74
1055.79
1050.25
1045.11
1040.36
1036.01
1032.04
1028.46
1025.24
1022.39
1019.9
1017.78
1016
1014.58
1013.5
1012.78
1012.41
1339.43
1327.08
1314.15
1300.84
1287.37
1273.89
1260.53
1247.4
1234.54
1222
1209.8
1197.96
1186.5
1175.43
1164.78
1154.54
1144.74
1135.39
1126.47
1118.01
1110
1102.44
1095.32
1088.64
1082.4
1076.6
1071.22
1066.26
1061.71
1057.57
1053.83
1050.48
1047.51
1044.92
1042.71
1040.87
1039.39
1038.27
1037.52
1037.14
1387.34
1373.43
1358.86
1343.89
1328.79
1313.76
1298.96
1284.49
1270.42
1256.77
1243.57
1230.81
1218.52
1206.69
1195.34
1184.46
1174.08
1164.19
1154.79
1145.87
1137.45
1129.51
1122.04
1115.05
1108.52
1102.46
1096.84
1091.66
1086.92
1082.61
1078.71
1075.23
1072.14
1069.46
1067.16
1065.25
1063.72
1062.57
1061.79
1061.4
1436.8
1421.04
1404.52
1387.61
1370.62
1353.82
1337.39
1321.44
1306.04
1291.2
1276.93
1263.21
1250.05
1237.44
1225.38
1213.86
1202.89
1192.46
1182.57
1173.21
1164.37
1156.06
1148.25
1140.95
1134.13
1127.81
1121.95
1116.57
1111.64
1107.15
1103.11
1099.49
1096.29
1093.51
1091.13
1089.16
1087.57