/*--------------------------------*- C++ -*----------------------------------*\
  =========                 |
  \\      /  F ield         | OpenFOAM: The Open Source CFD Toolbox
   \\    /   O peration     | Website:  https://openfoam.org
    \\  /    A nd           | Version:  6
     \\/     M anipulation  |
\*---------------------------------------------------------------------------*/
FoamFile
{
    version     2.0;
    format      ascii;
    class       volScalarField;
    location    "10";
    object      pos;
}
// * * * * * * * * * * * * * * * * * * * * * * * * * * * * * * * * * * * * * //

dimensions      [0 -3 1 0 0 1 0];

internalField   nonuniform List<scalar> 
8800
(
0.000531127
0.000532457
0.000532984
0.000533117
0.000533078
0.000532952
0.000532772
0.000532553
0.000532297
0.000532007
0.000531682
0.000531323
0.000530931
0.000530508
0.000530054
0.000529572
0.000529063
0.000528531
0.000527977
0.000527404
0.000526814
0.000526207
0.000525582
0.000524937
0.000524272
0.000523584
0.000522868
0.000522116
0.000521319
0.000520471
0.00051957
0.000518621
0.000517631
0.000516617
0.000515602
0.000514603
0.000513633
0.000512703
0.000511815
0.000510976
0.00052543
0.000526884
0.000527456
0.000527589
0.000527543
0.000527409
0.000527224
0.000526997
0.000526732
0.000526431
0.000526094
0.000525722
0.000525316
0.000524877
0.000524406
0.000523906
0.000523378
0.000522826
0.000522251
0.000521656
0.000521044
0.000520414
0.000519765
0.000519094
0.000518405
0.000517693
0.000516951
0.00051617
0.000515342
0.000514458
0.000513517
0.000512523
0.000511486
0.000510422
0.000509357
0.000508309
0.000507294
0.00050632
0.000505392
0.000504516
0.000519836
0.000521509
0.00052211
0.000522255
0.000522208
0.00052207
0.000521875
0.000521638
0.000521362
0.000521049
0.000520698
0.000520312
0.00051989
0.000519433
0.000518944
0.000518424
0.000517876
0.000517301
0.000516703
0.000516085
0.000515448
0.000514793
0.000514117
0.000513422
0.00051271
0.000511975
0.000511207
0.000510398
0.000509538
0.000508616
0.00050763
0.000506585
0.000505491
0.000504366
0.000503239
0.00050213
0.000501057
0.000500029
0.00049905
0.000498127
0.000514476
0.000516319
0.000516973
0.000517129
0.00051708
0.000516933
0.000516729
0.00051648
0.000516191
0.000515864
0.000515498
0.000515095
0.000514655
0.00051418
0.000513671
0.00051313
0.000512559
0.000511962
0.00051134
0.000510697
0.000510035
0.000509354
0.000508652
0.000507936
0.000507204
0.000506448
0.000505658
0.000504823
0.000503931
0.00050297
0.000501936
0.000500834
0.000499675
0.000498479
0.000497278
0.000496095
0.00049495
0.000493854
0.000492811
0.000491828
0.000509339
0.000511312
0.000512022
0.000512198
0.000512149
0.000511996
0.000511781
0.00051152
0.000511217
0.000510874
0.000510491
0.00051007
0.000509611
0.000509116
0.000508585
0.000508022
0.000507429
0.000506808
0.000506163
0.000505496
0.000504809
0.000504105
0.000503378
0.000502647
0.000501899
0.000501126
0.000500316
0.000499458
0.000498536
0.000497536
0.000496451
0.000495287
0.000494055
0.000492776
0.000491489
0.000490218
0.000488988
0.00048781
0.000486689
0.000485633
0.000504404
0.000506499
0.000507263
0.000507459
0.000507413
0.000507254
0.000507028
0.000506753
0.000506435
0.000506074
0.000505674
0.000505233
0.000504754
0.000504238
0.000503686
0.000503101
0.000502485
0.000501842
0.000501174
0.000500485
0.000499776
0.00049905
0.000498308
0.000497564
0.000496803
0.000496016
0.000495192
0.000494313
0.000493364
0.000492324
0.000491185
0.000489954
0.00048864
0.000487267
0.00048588
0.000484508
0.000483177
0.000481904
0.000480691
0.000479548
0.000499669
0.000501879
0.000502694
0.000502909
0.000502866
0.000502701
0.000502464
0.000502175
0.00050184
0.000501462
0.000501042
0.000500581
0.000500082
0.000499544
0.000498971
0.000498365
0.000497728
0.000497064
0.000496376
0.000495666
0.000494938
0.000494193
0.000493443
0.00049269
0.000491921
0.000491126
0.00049029
0.000489393
0.000488417
0.000487338
0.000486142
0.000484836
0.000483431
0.000481953
0.000480452
0.000478963
0.000477517
0.000476132
0.000474813
0.000473569
0.000495137
0.000497447
0.000498309
0.000498543
0.000498503
0.000498331
0.000498083
0.00049778
0.000497428
0.000497032
0.000496593
0.000496112
0.000495592
0.000495034
0.000494441
0.000493815
0.000493158
0.000492476
0.00049177
0.000491043
0.000490298
0.000489537
0.000488789
0.000488032
0.000487258
0.000486458
0.000485614
0.000484701
0.000483699
0.000482578
0.00048132
0.000479933
0.000478426
0.000476827
0.000475197
0.000473575
0.000471998
0.000470485
0.000469044
0.000467686
0.000490808
0.000493199
0.000494103
0.000494354
0.000494317
0.00049414
0.000493881
0.000493563
0.000493195
0.000492781
0.000492323
0.000491823
0.000491284
0.000490707
0.000490094
0.00048945
0.000488776
0.000488077
0.000487356
0.000486616
0.000485859
0.000485096
0.000484347
0.00048359
0.000482815
0.000482014
0.000481164
0.000480237
0.000479209
0.000478043
0.000476716
0.000475236
0.000473615
0.00047188
0.000470103
0.00046833
0.000466602
0.000464946
0.000463367
0.000461878
0.000486681
0.000489134
0.000490072
0.000490339
0.000490305
0.000490123
0.000489854
0.000489522
0.000489138
0.000488707
0.000488231
0.000487713
0.000487155
0.00048656
0.000485931
0.00048527
0.000484582
0.00048387
0.000483137
0.000482386
0.00048162
0.000480866
0.00048012
0.000479366
0.000478594
0.000477795
0.000476942
0.000476
0.000474944
0.000473728
0.000472323
0.000470739
0.000468986
0.000467096
0.000465152
0.000463206
0.000461309
0.000459489
0.000457757
0.000456122
0.000482759
0.000485248
0.000486213
0.000486493
0.000486462
0.000486275
0.000485997
0.000485653
0.000485254
0.000484807
0.000484314
0.000483779
0.000483205
0.000482594
0.00048195
0.000481277
0.000480576
0.000479854
0.000479113
0.000478355
0.000477586
0.000476847
0.000476108
0.000475362
0.000474596
0.000473801
0.000472947
0.00047199
0.000470901
0.000469629
0.000468134
0.000466429
0.000464525
0.00046247
0.000460334
0.000458187
0.000456092
0.000454085
0.000452176
0.000450376
0.000479039
0.000481541
0.000482524
0.000482814
0.000482786
0.000482595
0.000482309
0.000481953
0.000481541
0.000481079
0.000480572
0.000480022
0.000479433
0.000478808
0.000478152
0.000477468
0.000476759
0.000476029
0.000475283
0.000474523
0.000473771
0.000473039
0.000472311
0.000471576
0.00047082
0.000470032
0.000469177
0.000468203
0.000467076
0.00046574
0.000464156
0.000462313
0.000460233
0.000457973
0.000455611
0.000453234
0.000450913
0.000448691
0.000446582
0.000444596
0.000475522
0.000478013
0.000479004
0.000479302
0.000479275
0.000479081
0.000478787
0.000478421
0.000477998
0.000477523
0.000477002
0.000476438
0.000475837
0.000475202
0.000474536
0.000473844
0.000473129
0.000472396
0.000471648
0.000470887
0.000470161
0.000469441
0.000468727
0.000468008
0.000467264
0.000466485
0.00046563
0.000464649
0.000463483
0.000462072
0.000460373
0.000458368
0.000456083
0.000453582
0.000450958
0.000448313
0.000445731
0.000443264
0.000440927
0.000438733
0.000472205
0.000474664
0.000475652
0.000475954
0.000475928
0.000475732
0.000475431
0.000475056
0.000474622
0.000474136
0.000473603
0.000473029
0.000472417
0.000471773
0.0004711
0.000470403
0.000469686
0.000468951
0.000468206
0.000467465
0.000466756
0.000466051
0.000465355
0.000464655
0.000463935
0.00046317
0.000462317
0.000461319
0.000460107
0.000458611
0.000456775
0.000454581
0.000452055
0.000449272
0.000446343
0.000443386
0.000440503
0.000437754
0.000435158
0.000432728
0.000469089
0.000471493
0.00047247
0.000472772
0.000472746
0.000472546
0.00047224
0.000471857
0.000471413
0.000470917
0.000470375
0.00046979
0.00046917
0.000468519
0.000467842
0.000467142
0.000466426
0.000465693
0.000464952
0.000464242
0.000463552
0.000462871
0.000462198
0.000461521
0.000460824
0.000460075
0.000459226
0.00045821
0.000456945
0.000455349
0.000453355
0.000450938
0.000448129
0.000445016
0.00044173
0.000438411
0.00043518
0.000432108
0.000429215
0.000426516
0.000466168
0.000468501
0.000469458
0.000469755
0.000469727
0.000469524
0.000469212
0.000468822
0.00046837
0.000467865
0.000467314
0.000466721
0.000466094
0.000465438
0.000464758
0.000464059
0.000463346
0.000462622
0.0004619
0.000461216
0.000460548
0.000459892
0.000459246
0.000458598
0.000457927
0.000457198
0.000456354
0.000455317
0.000453991
0.000452278
0.000450099
0.000447421
0.000444281
0.000440782
0.000437078
0.000433339
0.000429707
0.000426264
0.00042303
0.000420025
0.00046344
0.000465686
0.000466614
0.000466903
0.000466872
0.000466664
0.000466347
0.00046595
0.00046549
0.000464977
0.000464417
0.000463819
0.000463187
0.000462528
0.000461848
0.000461151
0.000460444
0.000459729
0.000459038
0.000458378
0.000457735
0.000457109
0.000456494
0.000455879
0.00045524
0.000454533
0.000453695
0.000452633
0.000451236
0.000449387
0.000446991
0.000444008
0.00044048
0.000436529
0.000432341
0.000428116
0.000424022
0.000420153
0.000416528
0.000413234
0.000460899
0.000463047
0.000463941
0.000464217
0.00046418
0.000463968
0.000463644
0.00046324
0.000462772
0.000462251
0.000461684
0.00046108
0.000460444
0.000459783
0.000459104
0.000458412
0.000457712
0.00045701
0.000456354
0.00045572
0.000455108
0.000454516
0.000453938
0.000453361
0.000452757
0.000452076
0.000451243
0.000450152
0.000448671
0.000446662
0.000444011
0.000440671
0.000436689
0.000432213
0.000427462
0.000422676
0.000418053
0.000413698
0.000409617
0.000406052
0.000458537
0.000460581
0.000461436
0.000461697
0.000461652
0.000461432
0.000461101
0.000460689
0.000460212
0.000459683
0.000459109
0.000458499
0.00045786
0.000457197
0.00045652
0.000455833
0.000455142
0.000454472
0.000453843
0.000453239
0.000452661
0.000452108
0.000451572
0.000451037
0.000450471
0.000449818
0.000448989
0.000447862
0.000446281
0.000444083
0.000441134
0.000437375
0.000432864
0.000427776
0.000422376
0.000416946
0.000411718
0.000406809
0.00040228
0.000398388
0.00045635
0.000458284
0.000459096
0.00045934
0.000459284
0.000459056
0.000458715
0.000458293
0.000457808
0.000457269
0.000456687
0.00045607
0.000455426
0.000454763
0.000454087
0.000453407
0.000452726
0.000452097
0.000451497
0.000450927
0.000450389
0.000449879
0.000449389
0.000448901
0.000448376
0.00044775
0.000446923
0.00044575
0.000444049
0.000441629
0.000438328
0.000434079
0.00042895
0.000423153
0.000417003
0.000410837
0.000404922
0.000399379
0.000394385
0.000390143
0.000454329
0.000456151
0.000456919
0.000457142
0.000457073
0.000456834
0.000456482
0.000456049
0.000455551
0.000455002
0.00045441
0.000453785
0.000453137
0.000452472
0.000451799
0.000451125
0.000450479
0.000449878
0.000449311
0.00044878
0.000448285
0.000447823
0.000447383
0.000446943
0.000446461
0.000445863
0.000445032
0.0004438
0.000441956
0.000439271
0.000435556
0.000430732
0.000424883
0.000418265
0.000411255
0.00040425
0.00039756
0.000391287
0.000385829
0.000381218
0.000452468
0.000454177
0.000454899
0.000455099
0.000455015
0.000454761
0.000454396
0.000453948
0.000453437
0.000452874
0.000452271
0.000451637
0.000450983
0.000450316
0.000449646
0.000448984
0.000448379
0.000447811
0.000447281
0.000446792
0.000446344
0.000445933
0.000445545
0.000445157
0.000444718
0.000444144
0.000443302
0.000441995
0.000439976
0.000436976
0.000432773
0.000427274
0.000420586
0.000413019
0.000405026
0.000397072
0.000389511
0.000382509
0.000376519
0.00037151
0.000450758
0.000452356
0.00045303
0.000453205
0.000453103
0.000452832
0.00045245
0.000451985
0.000451457
0.000450878
0.000450261
0.000449617
0.000448955
0.000448287
0.00044762
0.000446998
0.000446423
0.000445889
0.000445401
0.000444958
0.00044456
0.000444202
0.000443868
0.000443531
0.000443134
0.000442582
0.000441718
0.000440316
0.000438085
0.000434709
0.000429927
0.000423637
0.000415973
0.000407314
0.000398199
0.000389176
0.000380634
0.000372866
0.00036633
0.000360907
0.00044919
0.000450679
0.000451305
0.000451453
0.000451329
0.000451039
0.000450636
0.000450151
0.000449602
0.000449005
0.000448372
0.000447715
0.000447046
0.000446376
0.000445732
0.000445146
0.000444604
0.00044411
0.000443665
0.00044327
0.000442925
0.000442621
0.000442342
0.000442056
0.000441699
0.000441161
0.000440263
0.00043874
0.000436252
0.000432426
0.000426961
0.000419743
0.000410945
0.000401031
0.000390645
0.000380423
0.000370764
0.000362243
0.000355153
0.000349295
0.000447757
0.000449139
0.000449716
0.000449835
0.000449687
0.000449373
0.000448946
0.000448436
0.000447864
0.000447246
0.000446594
0.000445924
0.000445247
0.000444581
0.000443981
0.000443426
0.00044292
0.000442466
0.000442067
0.000441723
0.00044143
0.000441181
0.000440957
0.00044072
0.0004404
0.00043987
0.000438921
0.000437246
0.000434444
0.000430083
0.000423809
0.000415505
0.000405394
0.000394045
0.000382225
0.000370672
0.000359825
0.000350537
0.00034288
0.000336559
0.000446449
0.000447728
0.000448256
0.000448342
0.000448166
0.000447825
0.00044737
0.000446832
0.000446233
0.000445591
0.000444919
0.000444234
0.00044355
0.000442928
0.000442355
0.000441832
0.000441364
0.000440953
0.000440602
0.000440308
0.000440068
0.000439873
0.000439702
0.000439513
0.000439225
0.000438692
0.000437673
0.000435808
0.000432629
0.000427629
0.000420402
0.000410829
0.000399204
0.000386221
0.000372792
0.000359766
0.000347742
0.000337648
0.000329402
0.000322583
0.000445258
0.000446437
0.000446914
0.000446965
0.000446758
0.000446385
0.000445898
0.000445329
0.0004447
0.000444032
0.000443339
0.00044264
0.000441988
0.000441392
0.000440847
0.000440359
0.000439931
0.000439564
0.00043926
0.000439017
0.00043883
0.000438688
0.000438569
0.000438425
0.000438163
0.000437616
0.000436503
0.000434404
0.000430771
0.000425011
0.000416665
0.000405617
0.000392253
0.000377422
0.000362201
0.000347526
0.000334355
0.00032347
0.000314617
0.000307254
0.000444175
0.000445257
0.000445682
0.000445695
0.000445453
0.000445045
0.000444522
0.000443918
0.000443257
0.000442561
0.000441846
0.000441162
0.00044054
0.000439968
0.000439454
0.000439002
0.000438614
0.000438291
0.000438034
0.000437841
0.000437705
0.000437616
0.000437547
0.000437443
0.000437201
0.000436626
0.000435392
0.000433007
0.000428831
0.000422176
0.000412519
0.000399766
0.000384418
0.000367513
0.000350314
0.00033381
0.000319602
0.000307934
0.000298435
0.000290471
0.000443192
0.00044418
0.000444551
0.000444523
0.000444241
0.000443794
0.000443231
0.000442589
0.000441894
0.00044117
0.000440452
0.0004398
0.000439198
0.000438653
0.00043817
0.000437754
0.000437406
0.000437127
0.000436916
0.000436771
0.000436686
0.000436647
0.000436626
0.00043656
0.00043633
0.000435711
0.000434323
0.000431594
0.000426774
0.000419066
0.000407887
0.000393175
0.000375582
0.000356372
0.00033702
0.000318829
0.000303484
0.000290987
0.000280782
0.000272153
0.0004423
0.000443198
0.000443513
0.000443439
0.000443114
0.000442623
0.000442018
0.000441336
0.000440605
0.000439857
0.000439174
0.000438538
0.000437957
0.000437438
0.000436987
0.000436607
0.000436298
0.000436061
0.000435896
0.000435799
0.000435763
0.000435773
0.000435797
0.000435765
0.000435538
0.000434857
0.000433281
0.00043014
0.000424562
0.00041563
0.000402696
0.000385756
0.000365647
0.000343893
0.000322146
0.000302396
0.000285951
0.000272587
0.000261603
0.000252255
0.000441492
0.000442301
0.000442558
0.000442434
0.000442062
0.000441524
0.000440874
0.00044015
0.000439384
0.000438662
0.000437989
0.000437369
0.000436811
0.000436319
0.000435899
0.000435553
0.000435282
0.000435086
0.000434965
0.000434915
0.000434928
0.000434986
0.000435053
0.00043505
0.000434817
0.000434054
0.00043225
0.000428624
0.000422163
0.000411819
0.000396885
0.000377435
0.000354539
0.00033003
0.000305782
0.000284594
0.000267035
0.00025273
0.000240884
0.000230788
0.000440761
0.000441483
0.000441678
0.000441501
0.000441078
0.00044049
0.000439792
0.000439026
0.000438264
0.000437554
0.000436893
0.00043629
0.000435753
0.000435287
0.000434896
0.000434582
0.000434348
0.000434193
0.000434115
0.000434111
0.000434172
0.000434277
0.000434385
0.000434406
0.000434156
0.000433291
0.000431215
0.000427025
0.000419551
0.000407599
0.000390411
0.00036817
0.000342224
0.000314756
0.000288298
0.000265559
0.000246802
0.000231449
0.000218664
0.00020784
0.0004401
0.000440736
0.000440867
0.000440633
0.000440154
0.000439513
0.000438767
0.000437974
0.000437231
0.000436528
0.000435878
0.000435291
0.000434774
0.000434332
0.000433968
0.000433686
0.000433488
0.000433372
0.000433338
0.00043338
0.000433488
0.000433639
0.000433786
0.000433826
0.000433549
0.000432558
0.000430165
0.000425329
0.000416706
0.000402951
0.000383261
0.000357965
0.000328729
0.000297956
0.000269657
0.000245397
0.000225351
0.00020883
0.000195061
0.000183608
0.000439501
0.000440053
0.000440116
0.000439821
0.000439283
0.000438589
0.000437793
0.000437016
0.000436274
0.000435578
0.000434939
0.000434366
0.000433866
0.000433445
0.000433106
0.000432855
0.000432691
0.000432615
0.000432625
0.000432713
0.000432869
0.000433066
0.00043325
0.000433304
0.000432988
0.000431847
0.000429092
0.000423528
0.000413627
0.000397883
0.000375465
0.000346888
0.000314229
0.00028065
0.000250239
0.000224333
0.000202848
0.000185028
0.00017044
0.000158828
0.00043896
0.000439427
0.000439421
0.00043906
0.000438462
0.000437713
0.000436903
0.000436128
0.000435388
0.000434697
0.000434066
0.000433504
0.000433018
0.000432615
0.0004323
0.000432077
0.000431949
0.000431914
0.000431968
0.000432105
0.000432309
0.000432551
0.00043277
0.000432833
0.000432467
0.000431152
0.000427991
0.000421625
0.000410327
0.000392436
0.000367108
0.000335066
0.000298663
0.000262717
0.000230268
0.00020263
0.000179527
0.000160627
0.000145668
0.000133541
0.00043847
0.000438854
0.000438774
0.000438344
0.000437684
0.000436879
0.000436084
0.000435306
0.000434566
0.000433877
0.00043325
0.000432694
0.000432218
0.000431831
0.000431539
0.000431346
0.000431253
0.00043126
0.000431361
0.000431547
0.000431801
0.000432089
0.000432341
0.000432407
0.000431979
0.000430469
0.000426863
0.00041963
0.000406845
0.000386693
0.000358349
0.000322828
0.000283296
0.00024475
0.000210181
0.000180671
0.000155937
0.00013678
0.000120817
0.000108134
0.000438025
0.000438326
0.00043817
0.00043767
0.000436948
0.000436131
0.000435326
0.000434544
0.0004338
0.000433108
0.000432479
0.000431924
0.000431456
0.000431082
0.000430812
0.00043065
0.000430596
0.000430647
0.000430798
0.000431037
0.000431342
0.000431675
0.000431958
0.000432021
0.00043152
0.000429795
0.000425712
0.000417568
0.000403242
0.000380782
0.000349394
0.000310334
0.000268143
0.000227171
0.000190491
0.000158817
0.000133785
0.000113572
9.64665e-05
8.32156e-05
0.000437622
0.00043784
0.000437604
0.000437033
0.000436248
0.000435437
0.000434624
0.000433833
0.00043308
0.000432378
0.000431741
0.000431184
0.000430719
0.000430359
0.000430112
0.000429982
0.000429969
0.00043007
0.000430274
0.000430567
0.000430926
0.000431305
0.000431616
0.000431671
0.000431086
0.000429131
0.00042455
0.000415476
0.000399606
0.000374884
0.000340593
0.000298729
0.000253886
0.000210662
0.000172041
0.000138557
0.000113344
9.1775e-05
7.35559e-05
5.9633e-05
0.000437256
0.000437389
0.000437071
0.00043643
0.000435622
0.000434795
0.000433969
0.000433164
0.000432395
0.000431676
0.000431026
0.000430461
0.000429998
0.000429651
0.000429429
0.000429335
0.000429369
0.000429522
0.000429784
0.000430136
0.00043055
0.000430975
0.000431312
0.000431353
0.000430675
0.000428477
0.000423392
0.000413396
0.000396038
0.000369198
0.000332318
0.000288095
0.000241017
0.000195889
0.000155508
0.000121367
9.53657e-05
7.26e-05
5.34067e-05
3.86075e-05
0.000436922
0.000436969
0.00043657
0.000435855
0.000435042
0.000434199
0.000433355
0.000432528
0.000431733
0.000430989
0.000430319
0.000429743
0.000429282
0.00042895
0.000428756
0.000428704
0.00042879
0.000429002
0.000429327
0.000429741
0.000430211
0.000430681
0.000431041
0.000431062
0.000430284
0.000427837
0.000422253
0.000411378
0.000392643
0.000363896
0.000325098
0.0002789
0.000230119
0.000183666
0.000142222
0.000107899
8.1118e-05
5.76226e-05
3.78181e-05
2.20452e-05
0.000510197
0.00050948
0.000508822
0.00050821
0.000507644
0.000507132
0.000506689
0.000506331
0.000506071
0.000505905
0.000505905
0.000506071
0.000506331
0.000506689
0.000507132
0.000507644
0.00050821
0.000508822
0.00050948
0.000510198
0.000503703
0.000502955
0.000502268
0.000501629
0.000501039
0.000500505
0.000500042
0.000499668
0.000499396
0.000499223
0.000499223
0.000499396
0.000499668
0.000500042
0.000500505
0.000501039
0.000501629
0.000502268
0.000502955
0.000503703
0.00049727
0.000496481
0.000495757
0.000495084
0.000494463
0.000493902
0.000493415
0.000493021
0.000492736
0.000492552
0.000492552
0.000492736
0.000493021
0.000493415
0.000493902
0.000494463
0.000495084
0.000495757
0.000496481
0.00049727
0.000490916
0.000490079
0.000489307
0.000488588
0.00048792
0.000487324
0.000486806
0.000486387
0.000486082
0.000485887
0.000485887
0.000486083
0.000486387
0.000486806
0.000487325
0.00048792
0.000488588
0.000489307
0.000490079
0.000490916
0.000484654
0.000483754
0.000482924
0.00048215
0.000481427
0.000480776
0.000480215
0.000479762
0.000479433
0.000479222
0.000479222
0.000479433
0.000479762
0.000480215
0.000480776
0.000481427
0.00048215
0.000482924
0.000483754
0.000484654
0.000478488
0.000477513
0.000476613
0.00047577
0.00047498
0.000474258
0.000473644
0.000473147
0.000472785
0.000472553
0.000472553
0.000472785
0.000473147
0.000473644
0.000474258
0.00047498
0.00047577
0.000476613
0.000477513
0.000478488
0.000472415
0.000471352
0.000470369
0.000469446
0.000468577
0.000467778
0.000467089
0.000466538
0.000466136
0.00046588
0.00046588
0.000466136
0.000466538
0.000467089
0.000467778
0.000468577
0.000469446
0.000470369
0.000471352
0.000472415
0.000466423
0.00046526
0.000464183
0.000463168
0.000462207
0.00046132
0.000460544
0.000459929
0.00045948
0.000459194
0.000459194
0.00045948
0.000459929
0.000460544
0.00046132
0.000462208
0.000463168
0.000464183
0.00046526
0.000466423
0.000460494
0.000459219
0.000458035
0.000456918
0.000455855
0.000454868
0.000453997
0.000453309
0.000452805
0.000452486
0.000452486
0.000452805
0.00045331
0.000453997
0.000454868
0.000455855
0.000456918
0.000458035
0.000459219
0.000460494
0.000454601
0.000453201
0.0004519
0.000450669
0.000449492
0.000448395
0.000447428
0.000446659
0.000446093
0.000445737
0.000445737
0.000446093
0.000446659
0.000447428
0.000448395
0.000449492
0.000450669
0.0004519
0.000453201
0.000454602
0.000448705
0.000447167
0.000445739
0.000444384
0.000443084
0.000441867
0.000440809
0.00043995
0.000439317
0.000438921
0.000438921
0.000439318
0.00043995
0.000440809
0.000441867
0.000443084
0.000444384
0.000445739
0.000447168
0.000448705
0.000442758
0.000441072
0.000439506
0.000438017
0.000436586
0.000435265
0.000434102
0.000433148
0.000432444
0.000432006
0.000432006
0.000432445
0.000433148
0.000434102
0.000435265
0.000436586
0.000438018
0.000439506
0.000441072
0.000442759
0.00043671
0.000434861
0.000433147
0.000431518
0.000429985
0.000428545
0.000427263
0.000426209
0.000425431
0.000424949
0.000424949
0.000425431
0.000426209
0.000427264
0.000428546
0.000429985
0.000431518
0.000433147
0.000434862
0.000436711
0.0004305
0.000428474
0.000426631
0.000424894
0.000423221
0.000421645
0.000420238
0.00041908
0.000418226
0.000417699
0.000417699
0.000418226
0.00041908
0.000420238
0.000421645
0.000423222
0.000424895
0.000426632
0.000428474
0.000430501
0.000424059
0.000421904
0.000419928
0.000418041
0.000416218
0.000414497
0.000412962
0.000411698
0.000410768
0.000410197
0.000410197
0.000410768
0.000411699
0.000412962
0.000414498
0.000416219
0.000418042
0.000419928
0.000421904
0.00042406
0.000417394
0.000415072
0.000412933
0.000410884
0.000408901
0.00040703
0.000405363
0.000403993
0.000402988
0.000402375
0.000402375
0.000402988
0.000403994
0.000405363
0.000407031
0.000408902
0.000410885
0.000412933
0.000415073
0.000417394
0.000410395
0.000407885
0.000405567
0.000403343
0.00040119
0.000399161
0.00039736
0.000395885
0.000394807
0.000394155
0.000394155
0.000394807
0.000395886
0.00039736
0.000399162
0.00040119
0.000403344
0.000405567
0.000407885
0.000410396
0.000402977
0.000400259
0.000397746
0.000395331
0.000392994
0.000390801
0.000388864
0.000387286
0.000386138
0.00038545
0.00038545
0.000386139
0.000387287
0.000388864
0.000390802
0.000392995
0.000395331
0.000397746
0.00040026
0.000402978
0.000395052
0.000392107
0.000389378
0.000386752
0.000384218
0.000381853
0.000379778
0.0003781
0.000376886
0.000376166
0.000376166
0.000376887
0.0003781
0.000379779
0.000381854
0.000384219
0.000386753
0.000389378
0.000392107
0.000395053
0.000386525
0.000383331
0.000380362
0.000377505
0.000374758
0.000372213
0.00037
0.000368224
0.000366949
0.0003662
0.0003662
0.00036695
0.000368225
0.000370001
0.000372214
0.000374758
0.000377505
0.000380363
0.000383331
0.000386526
0.000377297
0.000373828
0.000370592
0.000367478
0.000364502
0.000361771
0.000359421
0.000357551
0.00035622
0.000355447
0.000355447
0.00035622
0.000357552
0.000359421
0.000361772
0.000364502
0.000367478
0.000370592
0.000373829
0.000377298
0.000367261
0.000363486
0.000359951
0.000356554
0.000353335
0.000350414
0.000347929
0.000345971
0.000344588
0.000343795
0.000343795
0.000344588
0.000345971
0.000347929
0.000350415
0.000353335
0.000356555
0.000359951
0.000363487
0.000367262
0.000356303
0.000352187
0.000348317
0.000344614
0.00034114
0.000338029
0.000335414
0.000333375
0.000331946
0.000331138
0.000331138
0.000331946
0.000333375
0.000335415
0.000338029
0.00034114
0.000344615
0.000348318
0.000352188
0.000356303
0.000344302
0.000339805
0.000335567
0.000331537
0.000327804
0.000324508
0.000321775
0.000319664
0.000318197
0.000317377
0.000317377
0.000318197
0.000319664
0.000321775
0.000324509
0.000327804
0.000331537
0.000335567
0.000339806
0.000344303
0.000331136
0.000326216
0.000321577
0.00031721
0.000313225
0.000309761
0.000306925
0.000304755
0.000303259
0.000302434
0.000302434
0.000303259
0.000304756
0.000306925
0.000309761
0.000313226
0.000317211
0.000321578
0.000326216
0.000331136
0.000316682
0.000311298
0.00030624
0.000301542
0.000297327
0.000293719
0.000290806
0.000288597
0.000287085
0.00028626
0.00028626
0.000287085
0.000288597
0.000290806
0.00029372
0.000297327
0.000301542
0.00030624
0.000311299
0.000316682
0.000300825
0.000294948
0.00028947
0.00028447
0.000280067
0.000276358
0.000273402
0.00027118
0.000269668
0.000268852
0.000268852
0.000269668
0.00027118
0.000273402
0.000276358
0.000280068
0.000284471
0.00028947
0.000294949
0.000300825
0.000283469
0.000277093
0.000271223
0.000265983
0.000261457
0.000257704
0.000254752
0.000252551
0.000251063
0.000250266
0.000250266
0.000251063
0.000252551
0.000254753
0.000257704
0.000261458
0.000265983
0.000271224
0.000277093
0.000283469
0.000264552
0.000257708
0.000251517
0.000246132
0.000241575
0.000237852
0.000234965
0.000232829
0.000231392
0.000230627
0.000230627
0.000231392
0.000232829
0.000234966
0.000237853
0.000241575
0.000246132
0.000251517
0.000257708
0.000264551
0.000244063
0.000236839
0.000230445
0.000225048
0.000220576
0.000216977
0.000214226
0.000212205
0.000210852
0.000210134
0.000210134
0.000210852
0.000212205
0.000214226
0.000216977
0.000220576
0.000225048
0.000230445
0.000236839
0.000244062
0.000222068
0.00021462
0.00020819
0.000202948
0.0001987
0.000195343
0.000192792
0.000190936
0.000189702
0.000189048
0.000189048
0.000189702
0.000190936
0.000192792
0.000195344
0.0001987
0.000202948
0.00020819
0.00021462
0.000222067
0.000198724
0.000191284
0.000185125
0.000180166
0.000176246
0.000173218
0.00017095
0.000169321
0.000168247
0.000167679
0.000167679
0.000168247
0.000169321
0.00017095
0.000173218
0.000176246
0.000180166
0.000185125
0.000191284
0.000198724
0.000174532
0.000167266
0.00016148
0.000156975
0.000153529
0.000150939
0.000149039
0.000147695
0.000146816
0.000146352
0.000146352
0.000146816
0.000147695
0.000149039
0.00015094
0.000153529
0.000156975
0.00016148
0.000167266
0.000174531
0.000149682
0.000142789
0.0001376
0.00013375
0.000130925
0.000128873
0.000127406
0.000126387
0.000125727
0.000125377
0.000125377
0.000125727
0.000126387
0.000127406
0.000128873
0.000130925
0.00013375
0.0001376
0.000142789
0.000149681
0.000124456
0.00011824
0.000113909
0.000110901
0.000108812
0.000107362
0.000106362
0.000105683
0.000105247
0.000105011
0.000105011
0.000105247
0.000105683
0.000106362
0.000107363
0.000108812
0.000110901
0.000113909
0.00011824
0.000124455
9.92746e-05
9.40836e-05
9.08599e-05
8.88301e-05
8.75329e-05
8.6695e-05
8.61498e-05
8.57939e-05
8.55659e-05
8.54346e-05
8.54346e-05
8.55659e-05
8.57939e-05
8.61499e-05
8.66951e-05
8.7533e-05
8.88302e-05
9.08599e-05
9.40835e-05
9.92743e-05
7.46356e-05
7.08372e-05
6.89093e-05
6.79014e-05
6.73644e-05
6.70791e-05
6.6928e-05
6.68437e-05
6.67877e-05
6.67417e-05
6.67418e-05
6.67877e-05
6.68438e-05
6.6928e-05
6.70791e-05
6.73645e-05
6.79015e-05
6.89093e-05
7.08372e-05
7.46354e-05
5.11297e-05
4.90842e-05
4.85056e-05
4.84198e-05
4.85005e-05
4.86321e-05
4.87641e-05
4.88691e-05
4.89312e-05
4.89439e-05
4.89439e-05
4.89312e-05
4.88691e-05
4.87641e-05
4.86322e-05
4.85005e-05
4.84199e-05
4.85057e-05
4.90842e-05
5.11296e-05
2.95944e-05
2.95246e-05
3.00723e-05
3.06039e-05
3.10356e-05
3.13772e-05
3.16396e-05
3.18274e-05
3.19403e-05
3.19763e-05
3.19763e-05
3.19403e-05
3.18274e-05
3.16397e-05
3.13773e-05
3.10356e-05
3.06039e-05
3.00724e-05
2.95246e-05
2.95944e-05
1.15727e-05
1.29756e-05
1.39218e-05
1.45258e-05
1.49366e-05
1.52336e-05
1.54508e-05
1.56026e-05
1.56939e-05
1.57188e-05
1.57188e-05
1.56939e-05
1.56026e-05
1.54508e-05
1.52336e-05
1.49366e-05
1.45258e-05
1.39219e-05
1.29756e-05
1.15727e-05
0.000510976
0.000511815
0.000512703
0.000513633
0.000514603
0.000515603
0.000516618
0.000517632
0.000518621
0.000519571
0.000520472
0.00052132
0.000522116
0.000522868
0.000523584
0.000524271
0.000524936
0.000525582
0.000526207
0.000526813
0.000527403
0.000527976
0.00052853
0.000529063
0.000529571
0.000530053
0.000530507
0.000530931
0.000531322
0.000531681
0.000532006
0.000532297
0.000532552
0.000532772
0.000532951
0.000533077
0.000533117
0.000532983
0.000532457
0.000531127
0.000504516
0.000505392
0.000506321
0.000507294
0.00050831
0.000509358
0.000510423
0.000511487
0.000512524
0.000513517
0.000514458
0.000515342
0.00051617
0.000516951
0.000517693
0.000518405
0.000519094
0.000519764
0.000520413
0.000521043
0.000521655
0.00052225
0.000522825
0.000523378
0.000523905
0.000524405