/*--------------------------------*- C++ -*----------------------------------*\
  =========                 |
  \\      /  F ield         | OpenFOAM: The Open Source CFD Toolbox
   \\    /   O peration     | Website:  https://openfoam.org
    \\  /    A nd           | Version:  6
     \\/     M anipulation  |
\*---------------------------------------------------------------------------*/
FoamFile
{
    version     2.0;
    format      ascii;
    class       volScalarField;
    location    "10";
    object      source;
}
// * * * * * * * * * * * * * * * * * * * * * * * * * * * * * * * * * * * * * //

dimensions      [0 -3 0 0 0 1 0];

internalField   nonuniform List<scalar> 
8800
(
0.000418746
0.000418605
0.00041858
0.00041865
0.000418719
0.000418778
0.000418832
0.000418894
0.000418965
0.000419043
0.00041913
0.000419224
0.000419325
0.000419433
0.000419548
0.00041967
0.000419797
0.000419929
0.000420066
0.000420208
0.000420354
0.000420503
0.000420655
0.000420808
0.000420956
0.000421106
0.000421257
0.00042141
0.000421565
0.000421724
0.000421885
0.000422049
0.000422215
0.00042238
0.000422543
0.000422702
0.000422855
0.000423001
0.000423139
0.000423269
0.000392271
0.000391657
0.000391611
0.000391687
0.000391777
0.000391871
0.000391973
0.000392085
0.00039221
0.000392347
0.000392497
0.000392659
0.000392834
0.00039302
0.000393217
0.000393423
0.000393639
0.000393863
0.000394095
0.000394333
0.000394576
0.000394825
0.000395077
0.000395321
0.000395552
0.000395783
0.000396017
0.000396256
0.000396503
0.00039676
0.000397028
0.000397306
0.000397593
0.000397885
0.000398176
0.000398463
0.00039874
0.000399006
0.000399261
0.0003995
0.000366421
0.000365611
0.000365488
0.000365573
0.000365699
0.000365837
0.000365985
0.00036615
0.000366331
0.000366529
0.000366745
0.000366977
0.000367225
0.000367488
0.000367764
0.000368053
0.000368352
0.000368661
0.000368977
0.0003693
0.000369627
0.000369959
0.000370292
0.000370594
0.000370882
0.000371169
0.000371462
0.000371765
0.000372085
0.000372426
0.000372792
0.000373181
0.000373592
0.000374016
0.000374445
0.000374872
0.000375289
0.000375692
0.000376079
0.000376446
0.000341343
0.000340558
0.000340405
0.00034048
0.000340623
0.000340794
0.000340986
0.000341201
0.000341439
0.000341699
0.00034198
0.00034228
0.000342598
0.000342933
0.000343282
0.000343644
0.000344015
0.000344394
0.000344779
0.000345168
0.000345559
0.000345952
0.000346334
0.000346657
0.000346975
0.000347292
0.000347619
0.000347965
0.00034834
0.000348753
0.000349209
0.000349707
0.000350244
0.000350809
0.000351388
0.000351969
0.000352542
0.000353098
0.000353635
0.000354147
0.000317238
0.000316549
0.000316406
0.000316481
0.000316638
0.000316837
0.000317069
0.000317333
0.000317624
0.000317942
0.000318283
0.000318645
0.000319026
0.000319423
0.000319833
0.000320253
0.00032068
0.000321111
0.000321544
0.000321976
0.000322406
0.000322829
0.00032321
0.000323538
0.000323859
0.000324181
0.00032452
0.000324889
0.000325304
0.000325778
0.000326319
0.000326927
0.000327595
0.000328311
0.000329053
0.000329803
0.000330548
0.000331275
0.000331979
0.000332654
0.000294194
0.000293655
0.000293553
0.000293641
0.000293813
0.000294039
0.000294307
0.000294612
0.00029495
0.000295318
0.00029571
0.000296124
0.000296555
0.000297
0.000297455
0.000297915
0.000298378
0.000298839
0.000299297
0.000299748
0.00030019
0.000300613
0.000300953
0.000301261
0.00030156
0.000301866
0.000302198
0.000302575
0.000303018
0.000303546
0.000304169
0.000304889
0.000305697
0.000306575
0.000307495
0.000308432
0.000309366
0.000310282
0.000311172
0.000312025
0.000272251
0.000271928
0.000271895
0.000272007
0.000272196
0.000272444
0.00027274
0.000273078
0.000273454
0.000273859
0.00027429
0.000274741
0.000275207
0.000275682
0.000276163
0.000276644
0.000277121
0.00027759
0.000278049
0.000278495
0.000278924
0.000279317
0.000279583
0.000279848
0.000280107
0.000280379
0.000280688
0.00028106
0.000281522
0.000282099
0.000282805
0.000283643
0.000284601
0.000285657
0.000286773
0.000287918
0.000289062
0.000290186
0.000291279
0.000292328
0.000251437
0.000251395
0.000251456
0.000251599
0.000251805
0.000252069
0.000252385
0.000252746
0.000253146
0.000253576
0.00025403
0.000254501
0.000254984
0.000255472
0.000255959
0.00025644
0.00025691
0.000257366
0.000257804
0.000258222
0.000258609
0.000258907
0.000259116
0.000259322
0.000259527
0.000259751
0.000260025
0.000260383
0.000260857
0.00026148
0.000262272
0.000263235
0.000264358
0.000265611
0.000266946
0.000268321
0.000269699
0.000271053
0.000272369
0.00027363
0.000231763
0.000232058
0.000232235
0.000232415
0.000232636
0.000232909
0.000233234
0.000233607
0.000234017
0.000234456
0.000234917
0.000235392
0.000235874
0.000236355
0.00023683
0.000237292
0.000237736
0.000238159
0.000238557
0.000238928
0.000239252
0.00023943
0.000239571
0.000239708
0.000239846
0.000240013
0.000240243
0.000240578
0.000241059
0.000241727
0.00024261
0.000243709
0.000245013
0.000246486
0.000248066
0.000249699
0.000251338
0.000252947
0.000254509
0.000256
0.000213227
0.0002139
0.000214209
0.000214431
0.000214663
0.000214939
0.000215264
0.000215634
0.000216041
0.000216475
0.000216928
0.00021739
0.000217854
0.000218312
0.000218757
0.000219183
0.000219586
0.00021996
0.000220304
0.000220611
0.000220841
0.000220901
0.000220965
0.000221024
0.000221089
0.00022119
0.000221369
0.000221676
0.00022216
0.000222873
0.000223852
0.0002251
0.000226603
0.000228327
0.000230181
0.000232104
0.000234033
0.000235924
0.000237754
0.000239497
0.000195812
0.000196889
0.000197341
0.000197608
0.000197849
0.00019812
0.000198436
0.000198793
0.000199184
0.000199599
0.000200028
0.000200464
0.000200896
0.000201316
0.000201718
0.000202096
0.000202443
0.000202757
0.000203035
0.000203264
0.000203345
0.000203329
0.000203311
0.000203288
0.000203275
0.000203304
0.000203425
0.000203699
0.000204183
0.000204943
0.000206029
0.000207443
0.000209169
0.000211157
0.000213318
0.000215564
0.00021782
0.000220028
0.000222156
0.000224176
0.000179491
0.00018098
0.000181583
0.000181897
0.000182144
0.000182405
0.000182702
0.000183036
0.000183401
0.000183785
0.000184181
0.000184578
0.000184966
0.000185339
0.000185687
0.000186006
0.00018629
0.000186536
0.000186741
0.000186888
0.000186814
0.000186721
0.00018662
0.000186512
0.000186416
0.00018637
0.000186429
0.000186663
0.000187152
0.000187963
0.000189156
0.000190748
0.000192716
0.000195002
0.000197502
0.00020011
0.000202732
0.000205294
0.000207755
0.000210083
0.000164229
0.000166124
0.000166878
0.00016724
0.000167491
0.000167737
0.000168011
0.000168315
0.000168645
0.000168991
0.000169344
0.000169694
0.000170032
0.000170349
0.000170637
0.000170892
0.000171108
0.000171282
0.000171409
0.000171405
0.000171248
0.000171078
0.000170894
0.0001707
0.000170514
0.000170391
0.000170388
0.000170582
0.000171071
0.000171937
0.000173247
0.000175029
0.00017726
0.000179872
0.000182747
0.000185759
0.000188788
0.000191747
0.000194581
0.00019725
0.000149985
0.000152264
0.000153168
0.000153577
0.000153833
0.000154062
0.000154307
0.000154577
0.000154868
0.00015517
0.000155475
0.000155774
0.000156056
0.000156314
0.00015654
0.000156728
0.000156875
0.000156977
0.000157028
0.000156867
0.00015664
0.000156389
0.000156121
0.000155841
0.00015557
0.000155367
0.000155301
0.000155458
0.000155948
0.00015687
0.000158305
0.000160291
0.000162808
0.000165776
0.000169064
0.000172521
0.000176004
0.000179404
0.000182654
0.000185704
0.000136717
0.000139346
0.000140392
0.00014085
0.000141109
0.000141322
0.000141538
0.000141771
0.00014202
0.000142276
0.000142532
0.000142777
0.000143004
0.000143202
0.000143366
0.000143489
0.000143567
0.000143597
0.000143529
0.000143266
0.000142969
0.000142642
0.000142292
0.000141927
0.000141573
0.000141293
0.000141163
0.000141284
0.000141777
0.00014276
0.00014433
0.000146537
0.000149363
0.00015272
0.00015646
0.000160406
0.000164389
0.000168278
0.000171991
0.000175465
0.000124382
0.000127317
0.000128494
0.000128998
0.000129263
0.00012946
0.000129648
0.000129846
0.000130053
0.000130264
0.000130471
0.000130665
0.000130837
0.000130979
0.000131083
0.000131144
0.000131156
0.000131118
0.000130903
0.000130582
0.000130218
0.000129817
0.000129387
0.000128939
0.000128504
0.000128149
0.000127959
0.000128046
0.000128548
0.000129601
0.00013132
0.000133769
0.000136932
0.000140714
0.000144947
0.000149428
0.000153958
0.000158383
0.000162608
0.000166469
0.000112937
0.000116124
0.000117417
0.000117966
0.000118239
0.000118422
0.000118586
0.000118751
0.00011892
0.00011909
0.000119251
0.000119397
0.000119518
0.000119607
0.000119656
0.00011966
0.000119613
0.000119493
0.000119166
0.000118786
0.000118357
0.000117883
0.000117374
0.000116845
0.000116334
0.000115908
0.000115663
0.000115726
0.000116248
0.000117386
0.000119275
0.000121992
0.000125528
0.000129775
0.000134546
0.000139607
0.000144731
0.000149742
0.000154529
0.000158779
0.000102341
0.00010572
0.00010711
0.0001077
0.000107983
0.000108158
0.000108301
0.000108439
0.000108576
0.000108708
0.00010883
0.000108934
0.000109011
0.000109053
0.000109054
0.000109007
0.000108907
0.000108656
0.000108277
0.000107839
0.000107345
0.0001068
0.000106215
0.00010561
0.000105027
0.00010454
0.000104252
0.000104303
0.000104862
0.000106107
0.000108196
0.000111218
0.000115169
0.00011993
0.000125287
0.000130977
0.000136743
0.000142386
0.000147702
0.000152437
9.25495e-05
9.60605e-05
9.75265e-05
9.81546e-05
9.84499e-05
9.86208e-05
9.87497e-05
9.88659e-05
9.89766e-05
9.90799e-05
9.91696e-05
9.92383e-05
9.92782e-05
9.92817e-05
9.92413e-05
9.91506e-05
9.89967e-05
9.86247e-05
9.81918e-05
9.76958e-05
9.71366e-05
9.65216e-05
9.58648e-05
9.5191e-05
9.45471e-05
9.40112e-05
9.36961e-05
9.37551e-05
9.43761e-05
9.5761e-05
9.80879e-05
0.000101464
0.000105884
0.000111215
0.000117215
0.000123586
0.000130041
0.000136362
0.000142228
0.000147484
8.352e-05
8.71052e-05
8.8626e-05
8.92861e-05
8.95957e-05
8.97678e-05
8.9889e-05
8.99915e-05
9.00841e-05
9.01659e-05
9.02315e-05
9.02735e-05
9.02841e-05
9.02557e-05
9.01803e-05
9.00509e-05
8.97681e-05
8.93475e-05
8.886e-05
8.83039e-05
8.76807e-05
8.70002e-05
8.62796e-05
8.55483e-05
8.48574e-05
8.42902e-05
8.39691e-05
8.40619e-05
8.47775e-05
8.6343e-05
8.89606e-05
9.2752e-05
9.77104e-05
0.000103682
0.00011039
0.000117499
0.000124691
0.000131737
0.000138186
0.000143968
7.52103e-05
7.88157e-05
8.03708e-05
8.10576e-05
8.13829e-05
8.15615e-05
8.16819e-05
8.17785e-05
8.18613e-05
8.193e-05
8.19796e-05
8.20026e-05
8.19908e-05
8.19362e-05
8.18302e-05
8.1645e-05
8.12447e-05
8.0771e-05
8.02264e-05
7.96101e-05
7.89266e-05
7.81883e-05
7.74158e-05
7.66421e-05
7.59224e-05
7.53455e-05
7.50438e-05
7.5202e-05
7.60526e-05
7.78509e-05
8.08249e-05
8.51104e-05
9.06935e-05
9.73916e-05
0.000104886
0.000112797
0.000120778
0.000128529
0.000135613
0.000141938
6.75798e-05
7.11569e-05
7.27274e-05
7.34355e-05
7.3778e-05
7.39678e-05
7.40944e-05
7.41927e-05
7.42737e-05
7.43372e-05
7.43781e-05
7.43884e-05
7.43592e-05
7.42817e-05
7.41465e-05
7.38225e-05
7.33686e-05
7.28392e-05
7.22365e-05
7.1563e-05
7.08267e-05
7.00427e-05
6.9234e-05
6.84366e-05
6.77092e-05
6.71468e-05
6.68936e-05
6.71536e-05
6.81871e-05
7.02816e-05
7.36935e-05
7.85707e-05
8.48858e-05
9.24169e-05
0.000100791
0.000109578
0.000118404
0.00012687
0.000134593
0.000141464
6.05887e-05
6.40962e-05
6.56653e-05
6.63899e-05
6.67508e-05
6.69564e-05
6.70953e-05
6.72024e-05
6.72887e-05
6.73534e-05
6.73912e-05
6.73929e-05
6.73485e-05
6.72482e-05
6.70153e-05
6.65933e-05
6.60841e-05
6.54977e-05
6.48394e-05
6.41161e-05
6.33391e-05
6.25253e-05
6.16992e-05
6.08988e-05
6.01866e-05
5.96645e-05
5.94909e-05
5.98932e-05
6.11646e-05
6.36305e-05
6.75786e-05
7.31665e-05
8.03445e-05
8.88372e-05
9.82031e-05
0.000107955
0.000117696
0.0001269
0.000135232
0.000142632
5.41984e-05
5.76024e-05
5.91562e-05
5.98933e-05
6.02738e-05
6.04992e-05
6.06557e-05
6.07774e-05
6.08744e-05
6.09449e-05
6.09825e-05
6.09767e-05
6.09157e-05
6.07667e-05
6.03895e-05
5.99054e-05
5.93388e-05
5.86977e-05
5.79914e-05
5.72307e-05
5.64289e-05
5.56037e-05
5.47804e-05
5.39984e-05
5.3324e-05
5.2868e-05
5.2806e-05
5.33943e-05
5.49659e-05
5.78907e-05
6.24913e-05
6.89322e-05
7.71298e-05
8.67375e-05
9.7228e-05
0.000108046
0.000118759
0.000128704
0.000137624
0.000145537
4.83716e-05
5.16459e-05
5.31736e-05
5.39201e-05
5.43213e-05
5.45696e-05
5.47479e-05
5.48883e-05
5.49992e-05
5.50773e-05
5.51145e-05
5.50982e-05
5.5015e-05
5.47002e-05
5.4251e-05
5.37085e-05
5.3087e-05
5.2399e-05
5.16574e-05
5.08754e-05
5.00672e-05
4.92502e-05
4.84496e-05
4.7706e-05
4.70905e-05
4.6725e-05
4.68069e-05
4.76276e-05
4.95686e-05
5.30528e-05
5.84417e-05
6.59024e-05
7.53032e-05
8.62051e-05
9.79745e-05
0.000109975
0.000121688
0.000132371
0.000141867
0.000150285
4.30718e-05
4.61977e-05
4.76915e-05
4.84454e-05
4.88681e-05
4.91418e-05
4.93444e-05
4.95054e-05
4.96308e-05
4.97149e-05
4.97475e-05
4.97137e-05
4.94807e-05
4.90716e-05
4.85596e-05
4.7961e-05
4.72928e-05
4.65711e-05
4.58109e-05
4.5026e-05
4.42301e-05
4.34399e-05
4.26797e-05
4.1992e-05
4.14539e-05
4.12014e-05
4.14588e-05
4.25611e-05
4.49484e-05
4.9106e-05
5.54393e-05
6.41122e-05
7.4927e-05
8.73273e-05
0.000100551
0.000113871
0.0001266
0.000138011
0.000148065
0.000156985
3.82638e-05
4.12296e-05
4.26845e-05
4.34445e-05
4.38894e-05
4.41895e-05
4.44173e-05
4.45983e-05
4.47356e-05
4.48204e-05
4.484e-05
4.46919e-05
4.43297e-05
4.38506e-05
4.32785e-05
4.2632e-05
4.19307e-05
4.11923e-05
4.04321e-05
3.96628e-05
3.88968e-05
3.81491e-05
3.7444e-05
3.68261e-05
3.63805e-05
3.6261e-05
3.67253e-05
3.81613e-05
4.10796e-05
4.60394e-05
5.34942e-05
6.35972e-05
7.6063e-05
9.01887e-05
0.000105062
0.000119866
0.000133611
0.000145718
0.000156319
0.000165751
3.39134e-05
3.67132e-05
3.81265e-05
3.88921e-05
3.93594e-05
3.96858e-05
3.99374e-05
4.01351e-05
4.02782e-05
4.03544e-05
4.02977e-05
3.99913e-05
3.9548e-05
3.90042e-05
3.83811e-05
3.77009e-05
3.69842e-05
3.62481e-05
3.55062e-05
3.47693e-05
3.40477e-05
3.3355e-05
3.27155e-05
3.21774e-05
3.18359e-05
3.18672e-05
3.25694e-05
3.43946e-05
3.79375e-05
4.38433e-05
5.2618e-05
6.43933e-05
7.87705e-05
9.48673e-05
0.000111596
0.000128017
0.000142736
0.000155543
0.000166712
0.000176684
2.99873e-05
3.26201e-05
3.39912e-05
3.47622e-05
3.52514e-05
3.56025e-05
3.58742e-05
3.60823e-05
3.62215e-05
3.6264e-05
3.60213e-05
3.56217e-05
3.51089e-05
3.45105e-05
3.38519e-05
3.31565e-05
3.24437e-05
3.17284e-05
3.10212e-05
3.03303e-05
2.96639e-05
2.90344e-05
2.84669e-05
2.80146e-05
2.77856e-05
2.79833e-05
2.89548e-05
3.12285e-05
3.54986e-05
4.25095e-05
5.28228e-05
6.65351e-05
8.31032e-05
0.00010143
0.000120221
0.000138201
0.000153973
0.000167525
0.000179314
0.00018987
2.64534e-05
2.89222e-05
3.02517e-05
3.10279e-05
3.15376e-05
3.19102e-05
3.2196e-05
3.2405e-05
3.25268e-05
3.23839e-05
3.204e-05
3.15659e-05
3.09946e-05
3.03583e-05
2.96842e-05
2.89941e-05
2.83044e-05
2.76262e-05
2.69668e-05
2.63317e-05
2.5727e-05
2.51645e-05
2.46712e-05
2.4307e-05
2.41959e-05
2.45739e-05
2.58467e-05
2.86325e-05
3.37416e-05
4.20309e-05
5.41196e-05
7.00511e-05
8.91024e-05
0.000109926
0.000131029
0.000150526
0.000167343
0.000181691
0.000194176
0.000205363
2.32808e-05
2.55915e-05
2.68806e-05
2.76615e-05
2.81894e-05
2.85781e-05
2.88695e-05
2.90667e-05
2.90505e-05
2.87728e-05
2.83468e-05
2.78092e-05
2.71976e-05
2.65453e-05
2.58779e-05
2.52135e-05
2.45639e-05
2.39359e-05
2.33334e-05
2.27593e-05
2.22184e-05
2.17228e-05
2.13021e-05
2.1025e-05
2.10347e-05
2.16059e-05
2.32127e-05
2.65782e-05
3.26458e-05
4.23988e-05
5.65131e-05
7.49568e-05
9.67863e-05
0.000120357
0.000143892
0.00016486
0.000182783
0.000198031
0.000211311
0.000223162
2.04399e-05
2.26005e-05
2.38504e-05
2.46348e-05
2.51772e-05
2.55748e-05
2.58604e-05
2.59902e-05
2.57986e-05
2.54265e-05
2.49292e-05
2.43471e-05
2.3719e-05
2.30755e-05
2.24372e-05
2.18167e-05
2.12207e-05
2.06519e-05
2.0111e-05
1.9599e-05
1.91199e-05
1.8687e-05
1.83341e-05
1.81403e-05
1.82717e-05
1.90481e-05
2.10225e-05
2.50381e-05
3.21893e-05
4.35981e-05
5.9994e-05
8.12433e-05
0.000106141
0.000132705
0.000158478
0.000181051
0.000200205
0.0002165
0.000230682
0.000243194
1.79033e-05
1.9922e-05
2.11337e-05
2.19198e-05
2.24714e-05
2.28685e-05
2.31339e-05
2.30778e-05
2.27805e-05
2.23314e-05
2.17841e-05
2.11838e-05
2.05666e-05
1.99566e-05
1.93677e-05
1.8806e-05
1.82731e-05
1.77679e-05
1.72888e-05
1.68356e-05
1.64126e-05
1.6035e-05
1.57423e-05
1.56259e-05
1.58785e-05
1.68713e-05
1.92469e-05
2.39842e-05
3.2345e-05
4.56011e-05
6.45285e-05
8.88616e-05
0.000117098
0.000146972
0.000174736
0.000198953
0.000219489
0.000237005
0.000252188
0.00026533
1.56445e-05
1.75297e-05
1.87036e-05
1.94892e-05
2.00425e-05
2.0427e-05
2.05657e-05
2.0371e-05
1.99894e-05
1.94852e-05
1.89172e-05
1.83297e-05
1.77513e-05
1.71977e-05
1.66747e-05
1.61822e-05
1.5717e-05
1.52752e-05
1.48537e-05
1.44523e-05
1.40763e-05
1.3744e-05
1.35018e-05
1.34554e-05
1.38276e-05
1.50472e-05
1.78568e-05
2.3385e-05
3.3076e-05
4.83587e-05
7.00454e-05
9.77039e-05
0.000129448
0.000162232
0.000192275
0.000218317
0.00024045
0.000259398
0.000275504
0.00028879
1.36383e-05
1.53984e-05
1.6535e-05
1.73163e-05
1.78611e-05
1.82175e-05
1.81625e-05
1.78691e-05
1.74232e-05
1.68947e-05
1.63409e-05
1.5798e-05
1.52844e-05
1.48059e-05
1.43604e-05
1.3942e-05
1.35442e-05
1.3161e-05
1.27891e-05
1.2429e-05
1.20885e-05
1.17897e-05
1.15869e-05
1.16023e-05
1.20919e-05
1.35477e-05
1.68215e-05
2.3203e-05
3.43301e-05
5.17914e-05
7.64221e-05
0.000107607
0.000143146
0.000178506
0.000210823
0.000238844
0.000262838
0.000283097
0.000299711
0.000313543
1.1861e-05
1.35041e-05
1.46038e-05
1.53744e-05
1.58988e-05
1.61005e-05
1.59342e-05
1.55666e-05
1.50889e-05
1.45741e-05
1.40705e-05
1.36018e-05
1.31744e-05
1.2784e-05
1.24215e-05
1.20767e-05
1.17406e-05
1.14069e-05
1.10731e-05
1.07415e-05
1.0423e-05
1.01448e-05
9.97013e-06
1.00391e-05
1.06436e-05
1.23438e-05
1.61068e-05
2.33919e-05
3.60352e-05
5.57808e-05
8.34633e-05
0.0001182
0.000156994
0.00019518
0.000229901
0.000260112
0.000286066
0.000306876
0.000324726
0.000339235
1.02905e-05
1.18244e-05
1.28877e-05
1.36373e-05
1.4123e-05
1.41353e-05
1.38808e-05
1.34701e-05
1.30014e-05
1.25405e-05
1.21207e-05
1.17504e-05
1.14237e-05
1.11275e-05
1.0847e-05
1.05693e-05
1.02846e-05
9.98752e-06
9.67753e-06
9.35997e-06
9.04945e-06
8.77891e-06
8.62149e-06
8.73645e-06
9.45368e-06
1.14044e-05
1.56747e-05
2.38948e-05
3.80962e-05
6.01667e-05
9.09304e-05
0.000129246
0.000170892
0.000211768
0.000248933
0.000281689
0.000308327
0.000330591
0.000349956
0.000365321
8.90611e-06
1.03381e-05
1.13643e-05
1.2081e-05
1.24188e-05
1.23227e-05
1.20066e-05
1.15944e-05
1.11792e-05
1.08101e-05
1.05012e-05
1.02456e-05
1.00259e-05
9.82218e-06
9.61606e-06
9.3935e-06
9.14573e-06
8.86961e-06
8.56766e-06
8.24897e-06
7.93264e-06
7.6579e-06
7.50836e-06
7.66331e-06
8.49174e-06
1.06967e-05
1.54825e-05
2.46446e-05
4.03951e-05
6.47366e-05
9.84218e-05
0.000139632
0.000184117
0.000227523
0.000266989
0.000301964
0.000329223
0.000353364
0.000374414
0.000391059
7.68866e-06
9.02619e-06
1.00115e-05
1.06821e-05
1.08374e-05
1.06612e-05
1.03245e-05
9.95884e-06
9.63982e-06
9.39322e-06
9.21329e-06
9.07877e-06
8.9635e-06
8.84287e-06
8.6972e-06
8.51335e-06
8.28502e-06
8.01247e-06
7.70226e-06
7.36784e-06
7.0333e-06
6.74446e-06
6.59579e-06
6.78694e-06
7.72595e-06
1.01861e-05
1.54842e-05
2.55671e-05
4.28012e-05
6.9262e-05
0.000105539
0.000149212
0.000196113
0.000241695
0.000283266
0.000319293
0.00034782
0.000373778
0.000396639
0.000415367
6.62032e-06
7.87145e-06
8.80772e-06
9.35531e-06
9.38745e-06
9.16158e-06
8.85396e-06
8.58232e-06
8.39437e-06
8.29027e-06
8.24594e-06
8.22872e-06
8.20659e-06
8.15298e-06
8.04903e-06
7.88425e-06
7.65614e-06
7.36943e-06
7.03536e-06
6.67223e-06
6.30937e-06
5.99936e-06
5.84756e-06
6.07382e-06
7.12404e-06
9.8376e-06
1.56329e-05
2.65859e-05
4.5182e-05
7.35183e-05
0.000111741
0.000157473
0.000206236
0.000253374
0.000296288
0.000332828
0.000362564
0.000389886
0.000414481
0.000436402
0.000423388
0.000423499
0.0004236
0.00042369
0.000423766
0.000423831
0.000423885
0.000423927
0.000423956
0.000423972
0.000423972
0.000423956
0.000423927
0.000423885
0.000423831
0.000423766
0.00042369
0.0004236
0.000423499
0.000423388
0.000399723
0.00039993
0.00040012
0.000400294
0.000400438
0.000400559
0.000400661
0.000400741
0.000400798
0.000400832
0.000400832
0.000400798
0.000400741
0.000400661
0.000400559
0.000400438
0.000400294
0.00040012
0.00039993
0.000399723
0.000376789
0.000377109
0.000377404
0.000377678
0.000377928
0.00037812
0.000378284
0.000378414
0.000378508
0.000378563
0.000378563
0.000378508
0.000378414
0.000378284
0.00037812
0.000377928
0.000377678
0.000377404
0.000377109
0.000376789
0.000354628
0.000355077
0.000355496
0.000355887
0.000356249
0.00035656
0.000356803
0.000357
0.000357141
0.000357224
0.000357224
0.000357141
0.000357
0.000356803
0.00035656
0.000356249
0.000355887
0.000355496
0.000355077
0.000354627
0.000333289
0.000333885
0.000334443
0.000334967
0.000335457
0.000335914
0.000336258
0.000336535
0.000336737
0.000336855
0.000336855
0.000336736
0.000336535
0.000336258
0.000335913
0.000335457
0.000334967
0.000334442
0.000333885
0.000333289
0.000312831
0.000313588
0.000314299
0.000314971
0.000315603
0.000316194
0.000316684
0.000317055
0.000317326
0.000317485
0.000317485
0.000317326
0.000317055
0.000316684
0.000316193
0.000315603
0.00031497
0.000314299
0.000313588
0.000312831
0.000293319
0.00029425
0.000295126
0.000295956
0.000296741
0.000297474
0.000298118
0.000298595
0.000298943
0.000299147
0.000299147
0.000298943
0.000298594
0.000298118
0.000297474
0.000296741
0.000295955
0.000295125
0.000294249
0.000293318
0.00027482
0.000275937
0.000276988
0.000277985
0.00027893
0.000279814
0.000280606
0.000281195
0.000281627
0.00028188
0.00028188
0.000281627
0.000281195
0.000280605
0.000279813
0.00027893
0.000277984
0.000276987
0.000275936
0.000274819
0.000257404
0.000258718
0.000259951
0.000261121
0.000262232
0.000263271
0.000264193
0.000264902
0.000265422
0.000265727
0.000265727
0.000265422
0.000264902
0.000264193
0.00026327
0.000262231
0.00026112
0.00025995
0.000258717
0.000257403
0.000241132
0.000242655
0.000244079
0.000245427
0.000246709
0.000247907
0.000248933
0.000249766
0.000250378
0.000250736
0.000250736
0.000250377
0.000249766
0.000248933
0.000247906
0.000246708
0.000245427
0.000244078
0.000242654
0.000241131
0.000226063
0.000227809
0.000229434
0.000230966
0.00023242
0.000233731
0.000234881
0.00023584
0.000236545
0.000236959
0.000236959
0.000236545
0.000235839
0.000234881
0.000233731
0.00023242
0.000230965
0.000229433
0.000227808
0.000226061
0.000212244
0.000214231
0.000216068
0.000217789
0.000219348
0.000220792
0.00022209
0.000223175
0.000223977
0.000224448
0.000224447
0.000223976
0.000223175
0.000222089
0.000220791
0.000219347
0.000217788
0.000216066
0.00021423
0.000212242
0.000199714
0.000201963
0.000203974
0.000205817
0.000207547
0.000209159
0.00021061
0.000211825
0.000212722
0.000213251
0.000213251
0.000212722
0.000211824
0.000210609
0.000209158
0.000207546
0.000205816
0.000203973
0.000201962
0.000199712
0.000188503
0.000190939
0.000193136
0.000195171
0.000197093
0.000198883
0.00020049
0.000201834
0.000202828
0.000203415
0.000203415
0.000202828
0.000201833
0.000200489
0.000198882
0.000197092
0.00019517
0.000193135
0.000190937
0.000188501
0.000178518
0.000181212
0.00018365
0.00018591
0.000188034
0.000190007
0.000191772
0.000193244
0.000194335
0.000194979
0.000194978
0.000194334
0.000193244
0.000191771
0.000190006
0.000188033
0.000185909
0.000183649
0.00018121
0.000178515
0.000169848
0.000172851
0.000175563
0.000178065
0.000180404
0.000182566
0.00018449
0.000186091
0.000187276
0.000187976
0.000187976
0.000187276
0.000186091
0.00018449
0.000182565
0.000180403
0.000178064
0.000175562
0.000172849
0.000169846
0.000162543
0.000165887
0.000168898
0.000171663
0.000174232
0.000176591
0.000178677
0.000180405
0.000181682
0.000182436
0.000182436
0.000181681
0.000180405
0.000178676
0.00017659
0.000174231
0.000171662
0.000168896
0.000165885
0.000162541
0.000156627
0.000160339
0.000163675
0.000166727
0.000169543
0.000172108
0.00017436
0.000176213
0.000177578
0.000178383
0.000178383
0.000177577
0.000176212
0.000174359
0.000172107
0.000169541
0.000166725
0.000163674
0.000160337
0.000156624
0.000152125
0.000156233
0.000159921
0.000163283
0.000166365
0.000169147
0.000171566
0.000173542
0.000174991
0.000175844
0.000175843
0.00017499
0.000173541
0.000171565
0.000169146
0.000166363
0.000163282
0.000159919
0.000156231
0.000152122
0.000149076
0.000153603
0.000157668
0.000161366
0.000164731
0.000167739
0.000170327
0.000172422
0.00017395
0.000174845
0.000174845
0.000173949
0.000172421
0.000170326
0.000167738
0.00016473
0.000161365
0.000157667
0.000153601
0.000149073
0.000147527
0.000152493
0.000156962
0.000161019
0.000164684
0.000167925
0.00017068
0.000172889
0.000174489
0.000175422
0.000175422
0.000174488
0.000172888
0.000170679
0.000167924
0.000164683
0.000161018
0.00015696
0.00015249
0.000147524
0.000147542
0.000152964
0.00015786
0.000162298
0.000166276
0.000169753
0.000172671
0.000174984
0.000176649
0.000177614
0.000177614
0.000176648
0.000174984
0.00017267
0.000169752
0.000166275
0.000162296
0.000157859
0.000152962
0.000147539
0.0001492
0.000155095
0.000160438
0.000165272
0.000169569
0.000173277
0.000176349
0.000178757
0.000180475
0.000181465
0.000181465
0.000180475
0.000178756
0.000176348
0.000173276
0.000169567
0.00016527
0.000160437
0.000155093
0.000149198
0.000152597
0.000158977
0.000164783
0.000170019
0.00017463
0.000178558
0.000181767
0.000184255
0.000186016
0.000187021
0.000187021
0.000186015
0.000184255
0.000181767
0.000178557
0.000174629
0.000170017
0.000164782
0.000158976
0.000152595
0.000157841
0.000164717
0.000170992
0.000176622
0.000181528
0.000185652
0.000188976
0.000191524
0.000193311
0.000194323
0.000194323
0.000193311
0.000191523
0.000188975
0.000185651
0.000181527
0.000176621
0.000170991
0.000164716
0.000157839
0.000165046
0.000172425
0.000179161
0.000185159
0.000190323
0.000194606
0.00019801
0.000200591
0.000202386
0.000203395
0.000203394
0.000202386
0.000200591
0.000198009
0.000194605
0.000190322
0.000185158
0.000179159
0.000172424
0.000165045
0.000174328
0.000182205
0.000189373
0.000195687
0.000201051
0.000205437
0.000208877
0.000211458
0.000213238
0.00021423
0.00021423
0.000213238
0.000211458
0.000208876
0.000205436
0.00020105
0.000195686
0.000189372
0.000182204
0.000174328
0.000185791
0.000194139
0.000201682
0.00020823
0.000213707
0.000218126
0.000221543
0.000224082
0.00022582
0.000226779
0.000226779
0.000225819
0.000224082
0.000221543
0.000218125
0.000213707
0.000208229
0.000201681
0.000194139
0.000185791
0.000199508
0.00020827
0.000216091
0.000222752
0.000228234
0.000232593
0.000235918
0.000238364
0.000240026
0.000240938
0.000240938
0.000240026
0.000238364
0.000235918
0.000232593
0.000228233
0.000222752
0.000216091
0.00020827
0.000199508
0.000215506
0.000224574
0.000232533
0.000239151
0.000244499
0.000248694
0.000251843
0.000254138
0.000255687
0.000256535
0.000256535
0.000255687
0.000254138
0.000251843
0.000248694
0.000244499
0.00023915
0.000232533
0.000224574
0.000215507
0.000233742
0.000242943
0.000250865
0.000257242
0.000262291
0.000266184
0.000269084
0.000271175
0.000272574
0.000273338
0.000273338
0.000272574
0.000271175
0.000269084
0.000266183
0.000262291
0.000257241
0.000250866
0.000242944
0.000233743
0.000254109
0.000263194
0.000270718
0.000276698
0.000281328
0.000284821
0.000287382
0.000289202
0.000290409
0.000291067
0.000291067
0.000290409
0.000289202
0.000287382
0.000284821
0.000281328
0.000276698
0.000270718
0.000263195
0.00025411
0.000276103
0.000284874
0.000291876
0.000297271
0.000301319
0.000304288
0.000306418
0.000307904
0.000308879
0.000309411
0.000309411
0.000308879
0.000307904
0.000306418
0.000304288
0.000301319
0.000297271
0.000291876
0.000284875
0.000276105
0.000299532
0.00030778
0.000314018
0.000318604
0.000321902
0.000324231
0.000325849
0.000326952
0.000327667
0.00032806
0.00032806
0.000327666
0.000326952
0.000325849
0.000324231
0.000321901
0.000318604
0.000314018
0.000307781
0.000299534
0.000324147
0.000331558
0.000336741
0.000340296
0.000342697
0.000344297
0.000345354
0.000346046
0.000346489
0.000346742
0.000346742
0.000346489
0.000346046
0.000345353
0.000344297
0.000342697
0.000340296
0.000336741
0.000331558
0.000324148
0.000349589
0.000355788
0.000359608
0.000361937
0.000363338
0.000364167
0.000364652
0.000364941
0.000365123
0.000365241
0.000365241
0.000365123
0.000364941
0.000364652
0.000364167
0.000363338
0.000361937
0.000359608
0.000355788
0.00034959
0.000375493
0.000380024
0.000382166
0.000383125
0.000383496
0.000383578
0.000383536
0.000383463
0.000383416
0.000383419
0.000383419
0.000383416
0.000383463
0.000383536
0.000383578
0.000383496
0.000383125
0.000382166
0.000380024
0.000375494
0.000401592
0.00040379
0.000403929
0.000403471
0.000402888
0.000402333
0.000401868
0.000401518
0.0004013
0.000401217
0.000401217
0.0004013
0.000401518
0.000401868
0.000402333
0.000402888
0.000403471
0.000403929
0.00040379
0.000401592
0.000428022
0.000426491
0.000424323
0.000422587
0.000421283
0.000420309
0.000419592
0.000419089
0.00041878
0.000418652
0.000418652
0.00041878
0.000419089
0.000419592
0.000420309
0.000421283
0.000422587
0.000424324
0.000426491
0.000428022
0.000456766
0.000446938
0.000442563
0.000440104
0.000438542
0.000437481
0.000436743
0.000436243
0.000435937
0.000435812
0.000435812
0.000435937
0.000436243
0.000436743
0.000437481
0.000438542
0.000440104
0.000442563
0.000446938
0.000456767
0.000423268
0.000423139
0.000423
0.000422855
0.000422702
0.000422543
0.00042238
0.000422215
0.000422049
0.000421885
0.000421724
0.000421565
0.00042141
0.000421257
0.000421106
0.000420956
0.000420808
0.000420655
0.000420503
0.000420354
0.000420208
0.000420066
0.000419929
0.000419797
0.000419669
0.000419548
0.000419433
0.000419325
0.000419224
0.00041913
0.000419043
0.000418965
0.000418894
0.000418832
0.000418778
0.000418719
0.00041865
0.00041858
0.000418605
0.000418745
0.0003995
0.00039926
0.000399006
0.00039874
0.000398462
0.000398175
0.000397884
0.000397593
0.000397306
0.000397028
0.00039676
0.000396503
0.000396256
0.000396017
0.000395783
0.000395552
0.000395321
0.000395077
0.000394825
0.000394576
0.000394333
0.000394095
0.000393863
0.000393639
0.000393423
0.000393216