/*--------------------------------*- C++ -*----------------------------------*\
  =========                 |
  \\      /  F ield         | OpenFOAM: The Open Source CFD Toolbox
   \\    /   O peration     | Website:  https://openfoam.org
    \\  /    A nd           | Version:  6
     \\/     M anipulation  |
\*---------------------------------------------------------------------------*/
FoamFile
{
    version     2.0;
    format      ascii;
    class       volVectorField;
    location    "10";
    object      U;
}
// * * * * * * * * * * * * * * * * * * * * * * * * * * * * * * * * * * * * * //

dimensions      [0 1 -1 0 0 0 0];

internalField   nonuniform List<vector> 
8800
(
(-5.45928e-05 -0.00193399 0)
(-9.77086e-05 -0.00262374 0)
(-7.40421e-05 -0.00271968 0)
(-5.12911e-05 -0.00273329 0)
(-4.18932e-05 -0.00273564 0)
(-4.06776e-05 -0.00273517 0)
(-4.33676e-05 -0.00273322 0)
(-4.80281e-05 -0.00273194 0)
(-5.39247e-05 -0.00273128 0)
(-6.06798e-05 -0.00273105 0)
(-6.80666e-05 -0.00273114 0)
(-7.59354e-05 -0.00273151 0)
(-8.41673e-05 -0.00273215 0)
(-9.26473e-05 -0.00273309 0)
(-0.000101249 -0.00273436 0)
(-0.000109822 -0.00273602 0)
(-0.000118193 -0.00273813 0)
(-0.000126159 -0.00274076 0)
(-0.000133489 -0.00274398 0)
(-0.000139934 -0.00274786 0)
(-0.000145233 -0.00275245 0)
(-0.000149139 -0.00275774 0)
(-0.000151422 -0.00276359 0)
(-0.000151826 -0.00276931 0)
(-0.000149957 -0.00277401 0)
(-0.000145341 -0.00277901 0)
(-0.000137869 -0.00278455 0)
(-0.000127576 -0.00279069 0)
(-0.000114696 -0.00279739 0)
(-9.9686e-05 -0.00280459 0)
(-8.31788e-05 -0.00281216 0)
(-6.59127e-05 -0.00281998 0)
(-4.86506e-05 -0.00282789 0)
(-3.20953e-05 -0.00283573 0)
(-1.68163e-05 -0.00284338 0)
(-3.20676e-06 -0.00285055 0)
(8.64627e-06 -0.00285652 0)
(1.8729e-05 -0.00286131 0)
(2.69966e-05 -0.00286495 0)
(3.36099e-05 -0.00286688 0)
(2.17647e-05 0.000108461 0)
(2.49552e-05 0.00014045 0)
(-1.98633e-05 0.000165299 0)
(-5.55932e-05 0.000184678 0)
(-7.99102e-05 0.000197356 0)
(-0.00010047 0.000204755 0)
(-0.000120425 0.000208641 0)
(-0.00014073 0.000211737 0)
(-0.000161768 0.000214599 0)
(-0.000183642 0.000217362 0)
(-0.000206276 0.000220065 0)
(-0.000229505 0.000222707 0)
(-0.000253111 0.000225266 0)
(-0.000276821 0.000227699 0)
(-0.000300312 0.000229953 0)
(-0.000323204 0.000231958 0)
(-0.000345061 0.000233643 0)
(-0.000365394 0.000234931 0)
(-0.000383671 0.000235748 0)
(-0.000399337 0.000236033 0)
(-0.000411834 0.000235738 0)
(-0.000420606 0.000234831 0)
(-0.000425091 0.000233232 0)
(-0.000424944 0.000230568 0)
(-0.000419715 0.00022613 0)
(-0.000408832 0.000220691 0)
(-0.000392012 0.00021461 0)
(-0.00036934 0.000208272 0)
(-0.000341277 0.000202124 0)
(-0.000308642 0.000196607 0)
(-0.000272548 0.000192071 0)
(-0.000234292 0.000188739 0)
(-0.000195231 0.000186705 0)
(-0.000156631 0.000185877 0)
(-0.000119506 0.000186032 0)
(-8.45728e-05 0.000187116 0)
(-5.24375e-05 0.000189297 0)
(-2.35451e-05 0.000192483 0)
(1.90907e-06 0.000196555 0)
(2.3384e-05 0.000201488 0)
(1.49907e-05 0.000168796 0)
(9.67351e-06 0.000223502 0)
(-3.84989e-05 0.00022348 0)
(-8.76927e-05 0.000221009 0)
(-0.000129334 0.00022097 0)
(-0.000167023 0.000221922 0)
(-0.00020338 0.000222944 0)
(-0.000239489 0.000223884 0)
(-0.000275728 0.000224595 0)
(-0.000312215 0.00022499 0)
(-0.000348884 0.000225014 0)
(-0.000385533 0.000224619 0)
(-0.000421857 0.000223743 0)
(-0.000457463 0.000222313 0)
(-0.000491883 0.000220239 0)
(-0.000524579 0.000217431 0)
(-0.000554954 0.000213798 0)
(-0.000582364 0.000209268 0)
(-0.000606134 0.00020379 0)
(-0.000625578 0.000197353 0)
(-0.000640023 0.000189998 0)
(-0.000648824 0.000181801 0)
(-0.000651418 0.000172763 0)
(-0.000647553 0.000162541 0)
(-0.000636701 0.000151158 0)
(-0.000618658 0.000139238 0)
(-0.000593347 0.000127501 0)
(-0.000561059 0.000116732 0)
(-0.000522464 0.000107732 0)
(-0.000478578 0.000101211 0)
(-0.000430685 9.76474e-05 0)
(-0.000380239 9.72381e-05 0)
(-0.000328737 9.98967e-05 0)
(-0.000277595 0.000105198 0)
(-0.000228022 0.000112454 0)
(-0.000180974 0.000121024 0)
(-0.000137219 0.000130367 0)
(-9.73731e-05 0.00014013 0)
(-6.18319e-05 0.00014999 0)
(-3.08373e-05 0.000159643 0)
(-4.93008e-06 5.16305e-05 0)
(-3.00656e-05 8.01724e-05 0)
(-7.64873e-05 7.867e-05 0)
(-0.000128364 7.38865e-05 0)
(-0.000179804 7.14188e-05 0)
(-0.000230245 7.10758e-05 0)
(-0.000279932 7.19259e-05 0)
(-0.000329069 7.33036e-05 0)
(-0.000377711 7.47266e-05 0)
(-0.000425805 7.58581e-05 0)
(-0.00047318 7.64556e-05 0)
(-0.000519556 7.6322e-05 0)
(-0.000564549 7.52756e-05 0)
(-0.000607695 7.31367e-05 0)
(-0.000648457 6.97259e-05 0)
(-0.000686242 6.48701e-05 0)
(-0.000720418 5.84137e-05 0)
(-0.000750327 5.02322e-05 0)
(-0.000775306 4.02462e-05 0)
(-0.000794712 2.84406e-05 0)
(-0.000807941 1.4888e-05 0)
(-0.000814474 -2.41915e-07 0)
(-0.000813906 -1.66849e-05 0)
(-0.000805805 -3.40421e-05 0)
(-0.000789752 -5.27002e-05 0)
(-0.000765835 -7.21184e-05 0)
(-0.000734281 -9.13584e-05 0)
(-0.000695596 -0.000109353 0)
(-0.000650587 -0.00012501 0)
(-0.000600341 -0.000137349 0)
(-0.000546169 -0.000145683 0)
(-0.000489521 -0.000149693 0)
(-0.000431874 -0.000149431 0)
(-0.000374632 -0.000145383 0)
(-0.000319014 -0.000138373 0)
(-0.000266004 -0.000129181 0)
(-0.000216362 -0.000118474 0)
(-0.00017065 -0.000106708 0)
(-0.000129255 -9.41891e-05 0)
(-9.24126e-05 -8.1233e-05 0)
(-1.12096e-05 6.68972e-05 0)
(-4.62257e-05 0.000116034 0)
(-9.92091e-05 0.00012916 0)
(-0.000158605 0.000130655 0)
(-0.000219393 0.000130117 0)
(-0.000280035 0.000130171 0)
(-0.000339881 0.000131011 0)
(-0.000398633 0.000132235 0)
(-0.0004561 0.000133391 0)
(-0.000512077 0.000134083 0)
(-0.000566296 0.000133977 0)
(-0.000618412 0.000132782 0)
(-0.000668006 0.000130232 0)
(-0.000714595 0.000126077 0)
(-0.000757647 0.000120083 0)
(-0.000796599 0.000112038 0)
(-0.000830867 0.000101764 0)
(-0.000859873 8.91316e-05 0)
(-0.000883055 7.40794e-05 0)
(-0.000899893 5.66288e-05 0)
(-0.000909935 3.69034e-05 0)
(-0.000912818 1.51218e-05 0)
(-0.000908215 -8.44419e-06 0)
(-0.000895523 -3.38091e-05 0)
(-0.000874771 -6.07118e-05 0)
(-0.000846143 -8.82616e-05 0)
(-0.000810067 -0.000115272 0)
(-0.000767194 -0.000140417 0)
(-0.000718399 -0.000162344 0)
(-0.000664791 -0.000179829 0)
(-0.000607678 -0.000192004 0)
(-0.000548482 -0.000198469 0)
(-0.000488648 -0.000199284 0)
(-0.000429535 -0.000195046 0)
(-0.000372308 -0.000186782 0)
(-0.000317873 -0.000175471 0)
(-0.000266891 -0.000161968 0)
(-0.000219801 -0.000146898 0)
(-0.000176872 -0.000130698 0)
(-0.000138249 -0.00011378 0)
(-1.21217e-05 0.000101936 0)
(-5.16676e-05 0.000177943 0)
(-0.000111817 0.00020229 0)
(-0.000178523 0.00020794 0)
(-0.000246433 0.000208233 0)
(-0.00031398 0.000207614 0)
(-0.000380294 0.000207102 0)
(-0.000444841 0.000206597 0)
(-0.000507266 0.000205735 0)
(-0.000567251 0.000204113 0)
(-0.000624459 0.000201352 0)
(-0.000678511 0.000197104 0)
(-0.000728985 0.00019105 0)
(-0.000775426 0.000182898 0)
(-0.000817352 0.000172386 0)
(-0.000854275 0.00015929 0)
(-0.000885711 0.000143436 0)
(-0.000911192 0.000124719 0)
(-0.000930289 0.000103116 0)
(-0.000942624 7.87066e-05 0)
(-0.000947903 5.16731e-05 0)
(-0.000945888 2.22726e-05 0)
(-0.000936183 -9.20869e-06 0)
(-0.0009186 -4.27759e-05 0)
(-0.00089328 -7.76428e-05 0)
(-0.00086052 -0.000112703 0)
(-0.000820836 -0.000146588 0)
(-0.00077493 -0.000177772 0)
(-0.000723705 -0.000204687 0)
(-0.000668285 -0.000225899 0)
(-0.00060999 -0.000240387 0)
(-0.000550257 -0.000247693 0)
(-0.000490543 -0.000247912 0)
(-0.000432202 -0.0002418 0)
(-0.000376356 -0.000230646 0)
(-0.000323818 -0.000215707 0)
(-0.00027511 -0.000198099 0)
(-0.000230496 -0.000178659 0)
(-0.000190055 -0.000157976 0)
(-0.00015375 -0.000136573 0)
(-1.24977e-05 0.000132441 0)
(-5.42759e-05 0.000233825 0)
(-0.000118174 0.000268097 0)
(-0.000188636 0.000277191 0)
(-0.000260013 0.000277904 0)
(-0.000330676 0.000276188 0)
(-0.000399606 0.000273766 0)
(-0.00046612 0.000270847 0)
(-0.000529749 0.000267181 0)
(-0.000590097 0.000262393 0)
(-0.000646784 0.000256092 0)
(-0.000699424 0.000247906 0)
(-0.000747621 0.000237491 0)
(-0.000790968 0.000224542 0)
(-0.000829062 0.00020879 0)
(-0.00086151 0.00019002 0)
(-0.000887939 0.000168079 0)
(-0.00090801 0.000142894 0)
(-0.000921428 0.000114496 0)
(-0.000927971 8.30195e-05 0)
(-0.000927517 4.86881e-05 0)
(-0.000919928 1.1786e-05 0)
(-0.000904698 -2.72895e-05 0)
(-0.000882208 -6.84363e-05 0)
(-0.00085254 -0.000110584 0)
(-0.000816055 -0.000152462 0)
(-0.000773277 -0.000192542 0)
(-0.000724907 -0.000229113 0)
(-0.000671855 -0.0002604 0)
(-0.000615273 -0.000284746 0)
(-0.000556538 -0.000300965 0)
(-0.000497163 -0.000308531 0)
(-0.000438691 -0.000307576 0)
(-0.000382543 -0.000299035 0)
(-0.000329855 -0.00028452 0)
(-0.000281373 -0.000265605 0)
(-0.000237485 -0.00024372 0)
(-0.000198254 -0.000219945 0)
(-0.000163527 -0.00019502 0)
(-0.000133009 -0.000169571 0)
(-1.24578e-05 0.000162536 0)
(-5.43132e-05 0.000289737 0)
(-0.000118351 0.000334409 0)
(-0.000188816 0.000347068 0)
(-0.000259997 0.000348085 0)
(-0.000330157 0.000344997 0)
(-0.000398153 0.000340253 0)
(-0.000463196 0.000334394 0)
(-0.000524739 0.000327316 0)
(-0.000582341 0.000318707 0)
(-0.000635604 0.000308197 0)
(-0.000684155 0.000295422 0)
(-0.000727635 0.000280043 0)
(-0.000765702 0.000261762 0)
(-0.000798036 0.000240327 0)
(-0.000824342 0.000215548 0)
(-0.000844359 0.000187305 0)
(-0.000857866 0.00015557 0)
(-0.000864698 0.000120432 0)
(-0.000864784 8.20821e-05 0)
(-0.000858148 4.0797e-05 0)
(-0.000844515 -3.07014e-06 0)
(-0.000824058 -4.93387e-05 0)
(-0.000796857 -9.74554e-05 0)
(-0.000763091 -0.000146261 0)
(-0.000723116 -0.000194366 0)
(-0.00067742 -0.00024008 0)
(-0.000626672 -0.000281493 0)
(-0.000571798 -0.00031659 0)
(-0.00051401 -0.000343455 0)
(-0.000454787 -0.000360703 0)
(-0.000395802 -0.000367718 0)
(-0.000338764 -0.000364668 0)
(-0.000285238 -0.000352708 0)
(-0.000236472 -0.000333848 0)
(-0.000193186 -0.000310044 0)
(-0.000155672 -0.000283126 0)
(-0.000123804 -0.000254491 0)
(-9.71652e-05 -0.000225063 0)
(-7.51677e-05 -0.000195587 0)
(-1.17541e-05 0.000192207 0)
(-5.15585e-05 0.000344942 0)
(-0.000112635 0.000400004 0)
(-0.000179842 0.000416127 0)
(-0.000247611 0.000417223 0)
(-0.00031413 0.000412429 0)
(-0.000378173 0.000404936 0)
(-0.000438887 0.000395637 0)
(-0.000495679 0.0003846 0)
(-0.000548085 0.000371601 0)
(-0.000595711 0.00035632 0)
(-0.000638206 0.000338423 0)
(-0.000675259 0.000317601 0)
(-0.000706593 0.000293581 0)
(-0.000731965 0.000266146 0)
(-0.000751173 0.000235141 0)
(-0.000764055 0.00020049 0)
(-0.000770491 0.000162217 0)
(-0.000770438 0.000120469 0)
(-0.000763971 7.54855e-05 0)
(-0.00075119 2.75821e-05 0)
(-0.000731623 -2.27663e-05 0)
(-0.00070617 -7.55829e-05 0)
(-0.000674504 -0.000130046 0)
(-0.000636818 -0.000184933 0)
(-0.000593405 -0.000238737 0)
(-0.000544682 -0.000289594 0)
(-0.000491271 -0.000335373 0)
(-0.000434131 -0.000373741 0)
(-0.000374579 -0.000402469 0)
(-0.000314243 -0.000419943 0)
(-0.000255057 -0.000425418 0)
(-0.000198954 -0.000419077 0)
(-0.000147663 -0.000402302 0)
(-0.000102741 -0.000377596 0)
(-6.49046e-05 -0.000347411 0)
(-3.44209e-05 -0.000314097 0)
(-1.1013e-05 -0.000279461 0)
(6.02618e-06 -0.000244642 0)
(1.75426e-05 -0.000210658 0)
(-1.048e-05 0.000219694 0)
(-4.6449e-05 0.000396309 0)
(-0.000101989 0.000461209 0)
(-0.000163227 0.000480558 0)
(-0.000224931 0.000481538 0)
(-0.000285265 0.000474809 0)
(-0.00034296 0.000464289 0)
(-0.000397131 0.000451234 0)
(-0.000447166 0.000435901 0)
(-0.000492598 0.000418173 0)
(-0.000533044 0.000397801 0)
(-0.000568189 0.000374503 0)
(-0.000597767 0.000348013 0)
(-0.000621561 0.000318102 0)
(-0.000639399 0.000284592 0)
(-0.000651154 0.000247375 0)
(-0.000656741 0.000206424 0)
(-0.000656123 0.000161817 0)
(-0.00064936 0.000113763 0)
(-0.000636648 6.25458e-05 0)
(-0.000617943 8.53042e-06 0)
(-0.000593144 -4.78069e-05 0)
(-0.000563047 -0.000106519 0)
(-0.000527206 -0.000166776 0)
(-0.000485717 -0.000227313 0)
(-0.000438767 -0.000286457 0)
(-0.000386711 -0.000342138 0)
(-0.00033009 -0.000391995 0)
(-0.000269968 -0.000433281 0)
(-0.000207789 -0.000463375 0)
(-0.00014534 -0.000480342 0)
(-8.50276e-05 -0.000483265 0)
(-2.89452e-05 -0.000472364 0)
(2.12159e-05 -0.00044905 0)
(6.29749e-05 -0.000416658 0)
(9.57857e-05 -0.00037833 0)
(0.00011936 -0.000336995 0)
(0.000134056 -0.000294949 0)
(0.000140772 -0.000253729 0)
(0.000140715 -0.000214387 0)
(-8.80857e-06 0.000243725 0)
(-3.96154e-05 0.000441608 0)
(-8.7643e-05 0.000515492 0)
(-0.000140823 0.000537806 0)
(-0.000194434 0.000538571 0)
(-0.000246673 0.00052983 0)
(-0.000296266 0.000516193 0)
(-0.000342325 0.000499277 0)
(-0.000384236 0.00047954 0)
(-0.000421542 0.000456989 0)
(-0.000453884 0.000431459 0)
(-0.000480979 0.000402732 0)
(-0.000502607 0.000370599 0)
(-0.000518605 0.00033488 0)
(-0.000528857 0.000295447 0)
(-0.000533294 0.000252237 0)
(-0.000531886 0.000205273 0)
(-0.000524651 0.000154685 0)
(-0.000511734 0.000100735 0)
(-0.000493353 4.37725e-05 0)
(-0.00046897 -1.5648e-05 0)
(-0.000440052 -7.75063e-05 0)
(-0.000405791 -0.000141663 0)
(-0.000366066 -0.000207368 0)
(-0.00032079 -0.000273352 0)
(-0.00027006 -0.000337723 0)
(-0.000214217 -0.000398163 0)
(-0.000153664 -0.000452056 0)
(-8.98001e-05 -0.000496104 0)
(-2.40271e-05 -0.000527291 0)
(4.18942e-05 -0.000543044 0)
(0.000104295 -0.000542087 0)
(0.000161357 -0.000525169 0)
(0.000210838 -0.000494255 0)
(0.000250787 -0.000452647 0)
(0.000279945 -0.00040429 0)
(0.000297764 -0.0003529 0)
(0.000304531 -0.000301439 0)
(0.000301228 -0.000251943 0)
(0.000289306 -0.000205767 0)
(-6.9048e-06 0.000263525 0)
(-3.17022e-05 0.000479418 0)
(-7.08915e-05 0.000561207 0)
(-0.000114586 0.000586202 0)
(-0.00015872 0.000586736 0)
(-0.000201583 0.000576041 0)
(-0.000241936 0.000559362 0)
(-0.000278913 0.000538669 0)
(-0.000311917 0.000514623 0)
(-0.000340507 0.000487363 0)
(-0.000364352 0.000456819 0)
(-0.000383204 0.000422847 0)
(-0.000396882 0.000385301 0)
(-0.000405267 0.000344054 0)
(-0.000408288 0.000299027 0)
(-0.000405917 0.000250201 0)
(-0.000398151 0.000197643 0)
(-0.000385057 0.00014153 0)
(-0.000366853 8.21601e-05 0)
(-0.00034367 1.9918e-05 0)
(-0.000314869 -4.43957e-05 0)
(-0.000281994 -0.000111254 0)
(-0.000243861 -0.000180593 0)
(-0.000200354 -0.000251647 0)
(-0.000151106 -0.000323151 0)
(-9.62571e-05 -0.000392901 0)
(-3.60816e-05 -0.0004584 0)
(2.94528e-05 -0.000516839 0)
(9.75795e-05 -0.000563252 0)
(0.000167309 -0.0005948 0)
(0.000236461 -0.000608664 0)
(0.000302361 -0.000603424 0)
(0.000362262 -0.000579611 0)
(0.000413349 -0.000539469 0)
(0.000453247 -0.000486786 0)
(0.000480279 -0.000426253 0)
(0.000493649 -0.000362483 0)
(0.000493528 -0.000299279 0)
(0.000480921 -0.000239326 0)
(0.000457457 -0.000184413 0)
(-4.92187e-06 0.000278678 0)
(-2.33266e-05 0.000508906 0)
(-5.29912e-05 0.000597328 0)
(-8.64165e-05 0.000624682 0)
(-0.000120305 0.000625021 0)
(-0.000153098 0.000612541 0)
(-0.000183636 0.00059304 0)
(-0.000211099 0.000568814 0)
(-0.000234918 0.000540728 0)
(-0.000254681 0.000509055 0)
(-0.000270084 0.000473822 0)
(-0.000280907 0.000434963 0)
(-0.000287003 0.000392399 0)
(-0.000288285 0.000346059 0)
(-0.000284713 0.000295909 0)
(-0.000276277 0.000241967 0)
(-0.000262973 0.000184332 0)
(-0.000244873 0.000123204 0)
(-0.000222174 5.89509e-05 0)
(-0.000194277 -7.83151e-06 0)
(-0.000162638 -7.68105e-05 0)
(-0.000126181 -0.000148565 0)
(-8.43341e-05 -0.000223152 0)
(-3.68842e-05 -0.000299881 0)
(1.69233e-05 -0.000377789 0)
(7.61462e-05 -0.000453216 0)
(0.000140843 -0.000523686 0)
(0.000210352 -0.000585579 0)
(0.000283371 -0.0006346 0)
(0.000358344 -0.000666823 0)
(0.000432816 -0.000678857 0)
(0.000503832 -0.00066885 0)
(0.000568114 -0.000637139 0)
(0.000622345 -0.000586252 0)
(0.000663647 -0.000520565 0)
(0.00068993 -0.000445603 0)
(0.000700122 -0.000366991 0)
(0.000694247 -0.00028951 0)
(0.000673301 -0.000216635 0)
(0.00063902 -0.000150756 0)
(-2.99347e-06 0.000289097 0)
(-1.50376e-05 0.000529792 0)
(-3.50737e-05 0.000623424 0)
(-5.80369e-05 0.000652758 0)
(-8.1469e-05 0.000652966 0)
(-0.000104027 0.000638952 0)
(-0.00012467 0.000616963 0)
(-0.000142651 0.000589585 0)
(-0.000157442 0.000557872 0)
(-0.000168662 0.000522228 0)
(-0.000176031 0.000482776 0)
(-0.000179352 0.00043953 0)
(-0.000178496 0.000392475 0)
(-0.000173398 0.000341594 0)
(-0.000164027 0.000286891 0)
(-0.000150371 0.000228414 0)
(-0.000132419 0.000166269 0)
(-0.000110225 0.00010065 0)
(-8.38672e-05 3.19324e-05 0)
(-5.25097e-05 -3.9012e-05 0)
(-1.76727e-05 -0.000112716 0)
(2.25219e-05 -0.000190094 0)
(6.80953e-05 -0.000270339 0)
(0.000119594 -0.000352955 0)
(0.000177238 -0.000436213 0)
(0.000241015 -0.000517415 0)
(0.00031087 -0.000593341 0)
(0.000386062 -0.000659771 0)
(0.000465331 -0.000711866 0)
(0.000546811 -0.000744921 0)
(0.000627817 -0.000754949 0)
(0.000705028 -0.000739622 0)
(0.000774706 -0.000699027 0)
(0.00083306 -0.0006359 0)
(0.000876733 -0.000555253 0)
(0.000903228 -0.00046356 0)
(0.000911193 -0.000367582 0)
(0.000900506 -0.000273208 0)
(0.000872119 -0.000184844 0)
(0.000827745 -0.000105715 0)
(-1.22576e-06 0.000294978 0)
(-7.2839e-06 0.000542288 0)
(-1.80824e-05 0.000639614 0)
(-3.09018e-05 0.000670487 0)
(-4.41583e-05 0.000670631 0)
(-5.6777e-05 0.000655385 0)
(-6.78759e-05 0.000631326 0)
(-7.6797e-05 0.000601276 0)
(-8.3065e-05 0.000566457 0)
(-8.63322e-05 0.000527394 0)
(-8.63413e-05 0.000484303 0)
(-8.29004e-05 0.000437269 0)
(-7.58906e-05 0.000386339 0)
(-6.52415e-05 0.00033153 0)
(-5.08978e-05 0.000272868 0)
(-3.28044e-05 0.000210388 0)
(-1.0905e-05 0.000144094 0)
(1.48053e-05 7.40801e-05 0)
(4.46999e-05 1.26353e-06 0)
(7.83978e-05 -7.39407e-05 0)
(0.000116402 -0.00015235 0)
(0.000159933 -0.000234716 0)
(0.000209505 -0.00032087 0)
(0.000265635 -0.000409818 0)
(0.000328545 -0.000499593 0)
(0.000398284 -0.000587304 0)
(0.000474618 -0.000669212 0)
(0.00055675 -0.000740596 0)
(0.000643289 -0.000796025 0)
(0.000732123 -0.00083 0)
(0.000820326 -0.000837804 0)
(0.000904243 -0.000816533 0)
(0.000979729 -0.000765996 0)
(0.00104256 -0.000689103 0)
(0.00108893 -0.000591535 0)
(0.00111598 -0.000480821 0)
(0.0011221 -0.000364976 0)
(0.00110704 -0.000251132 0)
(0.00107161 -0.00014479 0)
(0.00101754 -5.0102e-05 0)
(3.13142e-07 0.00029672 0)
(-3.81519e-07 0.000546999 0)
(-2.72369e-06 0.000646484 0)
(-6.14344e-06 0.000678413 0)
(-9.92328e-06 0.000678543 0)
(-1.32937e-05 0.000662386 0)
(-1.55563e-05 0.00063672 0)
(-1.61598e-05 0.000604538 0)
(-1.46845e-05 0.000567198 0)
(-1.0812e-05 0.000525321 0)
(-4.29743e-06 0.000479175 0)
(5.05003e-06 0.00042887 0)
(1.73395e-05 0.000374601 0)
(3.26835e-05 0.00031637 0)
(5.11814e-05 0.000254207 0)
(7.29336e-05 0.000188161 0)
(9.79997e-05 0.000118292 0)
(0.000126441 4.47756e-05 0)
(0.00015929 -3.17525e-05 0)
(0.000195727 -0.000111429 0)
(0.000237607 -0.000195195 0)
(0.000285791 -0.000283672 0)
(0.000340849 -0.000376514 0)
(0.000403209 -0.000472479 0)
(0.000473034 -0.000569388 0)
(0.000550224 -0.000664093 0)
(0.000634327 -0.000752385 0)
(0.000724395 -0.000828993 0)
(0.000818868 -0.000887824 0)
(0.000915437 -0.00092258 0)
(0.00101096 -0.000927741 0)
(0.00110149 -0.000899754 0)
(0.00118254 -0.000838104 0)
(0.0012495 -0.000745859 0)
(0.00129819 -0.000629399 0)
(0.00132542 -0.000497393 0)
(0.00132936 -0.000359231 0)
(0.0013096 -0.000223422 0)
(0.00126671 -9.66552e-05 0)
(0.00120399 1.69178e-05 0)
(1.62558e-06 0.000294964 0)
(5.55376e-06 0.000544816 0)
(1.05919e-05 0.000644898 0)
(1.54683e-05 0.000677353 0)
(2.01098e-05 0.000677488 0)
(2.49686e-05 0.000660727 0)
(3.05409e-05 0.000633908 0)
(3.72586e-05 0.000600125 0)
(4.5479e-05 0.000560831 0)
(5.54895e-05 0.000516727 0)
(6.75183e-05 0.000468164 0)
(8.17422e-05 0.000415339 0)
(9.83254e-05 0.000358377 0)
(0.000117444 0.000297327 0)
(0.000139281 0.000232213 0)
(0.000164042 0.000163053 0)
(0.000191938 8.98432e-05 0)
(0.000223543 1.26408e-05 0)
(0.000259609 -6.81192e-05 0)
(0.000300524 -0.000153041 0)
(0.000348016 -0.000243081 0)
(0.000402842 -0.000338577 0)
(0.00046546 -0.000438927 0)
(0.000536075 -0.000542605 0)
(0.000614611 -0.000647159 0)
(0.000700703 -0.000749131 0)
(0.000793646 -0.000843891 0)
(0.000892293 -0.00092563 0)
(0.000994922 -0.000987585 0)
(0.00109908 -0.00102266 0)
(0.00120144 -0.00102448 0)
(0.00129786 -0.0009888 0)
(0.00138357 -0.000914721 0)
(0.00145363 -0.000805451 0)
(0.00150354 -0.000668099 0)
(0.00152986 -0.000512548 0)
(0.00153055 -0.000349666 0)
(0.00150497 -0.000189442 0)
(0.00145361 -3.98832e-05 0)
(0.00138059 9.48067e-05 0)
(2.73449e-06 0.00029013 0)
(1.05154e-05 0.00053679 0)
(2.16813e-05 0.000636143 0)
(3.34809e-05 0.000668596 0)
(4.51904e-05 0.000668703 0)
(5.69668e-05 0.000651605 0)
(6.91004e-05 0.000624076 0)
(8.18962e-05 0.000589239 0)
(9.56452e-05 0.000548593 0)
(0.00011061 0.000502888 0)
(0.000127027 0.000452515 0)
(0.00014512 0.000397688 0)
(0.000165136 0.00033852 0)
(0.000187366 0.000275043 0)
(0.000212159 0.00020723 0)
(0.000239932 0.000134995 0)
(0.000271216 5.81887e-05 0)
(0.000307378 -2.31967e-05 0)
(0.000348372 -0.000109215 0)
(0.000396116 -0.000200656 0)
(0.000451749 -0.000298177 0)
(0.000515798 -0.000401717 0)
(0.000588409 -0.000510326 0)
(0.000669408 -0.000622168 0)
(0.000758344 -0.000734509 0)
(0.000854513 -0.000843587 0)
(0.000956941 -0.000944416 0)
(0.0010643 -0.00103071 0)
(0.00117474 -0.00109508 0)
(0.00128573 -0.00112963 0)
(0.00139385 -0.00112712 0)
(0.00149481 -0.00108254 0)
(0.00158363 -0.000994554 0)
(0.00165513 -0.000866489 0)
(0.00170454 -0.000706204 0)
(0.00172821 -0.00052488 0)
(0.00172398 -0.000334971 0)
(0.00169099 -0.000147929 0)
(0.00163147 2.81217e-05 0)
(0.00154531 0.000184997 0)
(3.63264e-06 0.000282782 0)
(1.44684e-05 0.000524032 0)
(3.0427e-05 0.000621607 0)
(4.7625e-05 0.00065363 0)
(6.485e-05 0.000653679 0)
(8.20194e-05 0.000636474 0)
(9.92424e-05 0.000608632 0)
(0.000116711 0.000573228 0)
(0.000134667 0.000531758 0)
(0.000153376 0.000484976 0)
(0.000173124 0.000433272 0)
(0.00019424 0.000376831 0)
(0.000217121 0.000315714 0)
(0.000242261 0.000249883 0)
(0.000270269 0.000179192 0)
(0.000301889 0.000103382 0)
(0.000338183 2.20834e-05 0)
(0.00038074 -6.48107e-05 0)
(0.000430016 -0.000157652 0)
(0.000487763 -0.000257119 0)
(0.000554667 -0.000363356 0)
(0.000630815 -0.000475784 0)
(0.000715855 -0.000593047 0)
(0.000809109 -0.000713008 0)
(0.000909684 -0.000832696 0)
(0.00101653 -0.00094813 0)
(0.00112845 -0.00105406 0)
(0.00124398 -0.00114383 0)
(0.00136124 -0.00120945 0)
(0.00147768 -0.00124227 0)
(0.00158986 -0.00123415 0)
(0.00169344 -0.00117923 0)
(0.00178328 -0.00107571 0)
(0.001854 -0.000926982 0)
(0.00190064 -0.000741685 0)
(0.00191938 -0.00053236 0)
(0.00190788 -0.000313155 0)
(0.00186519 -9.71641e-05 0)
(0.00179423 0.000106908 0)
(0.00169479 0.000288127 0)
(4.31275e-06 0.00027349 0)
(1.73891e-05 0.000507701 0)
(3.67745e-05 0.00060275 0)
(5.77821e-05 0.000634042 0)
(7.88733e-05 0.000634023 0)
(9.98025e-05 0.000616906 0)
(0.00012055 0.000589074 0)
(0.000141235 0.000553493 0)
(0.000162091 0.000511596 0)
(0.000183435 0.000464087 0)
(0.00020567 0.000411293 0)
(0.000229305 0.000353317 0)
(0.000254983 0.00029011 0)
(0.000283512 0.000221485 0)
(0.000315884 0.000147098 0)
(0.000353313 6.64391e-05 0)
(0.000397775 -2.10529e-05 0)
(0.000449833 -0.00011534 0)
(0.000511111 -0.000216899 0)
(0.000582452 -0.000325868 0)
(0.000663871 -0.000441744 0)
(0.000754787 -0.00056339 0)
(0.000854209 -0.000689065 0)
(0.000960911 -0.000816401 0)
(0.00107358 -0.000942303 0)
(0.0011909 -0.0010627 0)
(0.00131152 -0.0011722 0)
(0.00143395 -0.00126386 0)
(0.00155635 -0.00132919 0)
(0.00167624 -0.00135874 0)
(0.00179025 -0.00134346 0)
(0.00189401 -0.0012766 0)
(0.0019823 -0.00115578 0)
(0.00204959 -0.000984464 0)
(0.0020908 -0.00077207 0)
(0.00210199 -0.000532565 0)
(0.00208074 -0.000281822 0)
(0.00202624 -3.457e-05 0)
(0.00194116 0.000198849 0)
(0.00182689 0.000405433 0)
(4.77608e-06 0.000262821 0)
(1.92873e-05 0.000488955 0)
(4.07485e-05 0.000581055 0)
(6.39823e-05 0.000611462 0)
(8.72836e-05 0.000611398 0)
(0.000110334 0.000594516 0)
(0.000133061 0.000566916 0)
(0.000155577 0.000531393 0)
(0.000178172 0.000489253 0)
(0.000201294 0.000441079 0)
(0.000225553 0.00038707 0)
(0.00025174 0.000327173 0)
(0.00028086 0.000261151 0)
(0.000314155 0.000188593 0)
(0.000353119 0.000108877 0)
(0.000399658 2.12336e-05 0)
(0.000455821 -7.47562e-05 0)
(0.000522066 -0.000178773 0)
(0.00059949 -0.000290851 0)
(0.000688004 -0.000410373 0)
(0.000786748 -0.000536146 0)
(0.000894352 -0.00066654 0)
(0.00100917 -0.000799546 0)
(0.0011295 -0.000932717 0)
(0.00125373 -0.00106299 0)
(0.00138037 -0.00118635 0)
(0.00150805 -0.0012974 0)
(0.00163537 -0.00138898 0)
(0.00176062 -0.00145214 0)
(0.00188145 -0.00147666 0)
(0.00199458 -0.0014525 0)
(0.00209568 -0.00137193 0)
(0.00217947 -0.00123196 0)
(0.00224035 -0.00103608 0)
(0.00227312 -0.000794547 0)
(0.00227384 -0.00052284 0)
(0.00224005 -0.000238565 0)
(0.00217256 4.32827e-05 0)
(0.00207027 0.000306684 0)
(0.00193901 0.000538804 0)
(5.03103e-06 0.00025133 0)
(2.02059e-05 0.000468919 0)
(4.24533e-05 0.000557963 0)
(6.64011e-05 0.000587486 0)
(9.03347e-05 0.000587431 0)
(0.000113967 0.000570868 0)
(0.000137264 0.000543572 0)
(0.000160426 0.000508112 0)
(0.000183898 0.000465597 0)
(0.000208363 0.000416411 0)
(0.000234755 0.000360539 0)
(0.000264283 0.000297686 0)
(0.000298451 0.000227348 0)
(0.000339065 0.000148807 0)
(0.000388276 6.11166e-05 0)
(0.000448843 -3.6695e-05 0)
(0.000521227 -0.000143701 0)
(0.000606214 -0.000259532 0)
(0.000703572 -0.000383292 0)
(0.000812078 -0.000513532 0)
(0.000929896 -0.000648466 0)
(0.00105489 -0.000786153 0)
(0.00118489 -0.000924515 0)
(0.00131786 -0.00106122 0)
(0.00145204 -0.00119341 0)
(0.00158594 -0.00131726 0)
(0.00171831 -0.00142746 0)
(0.00184788 -0.00151672 0)
(0.00197316 -0.00157563 0)
(0.00209197 -0.00159319 0)
(0.00220118 -0.00155829 0)
(0.00229647 -0.00146216 0)
(0.00237256 -0.00130112 0)
(0.00242373 -0.00107868 0)
(0.00244477 -0.000805957 0)
(0.0024317 -0.000500065 0)
(0.00238209 -0.000180514 0)
(0.00229711 0.000136751 0)
(0.00217632 0.000431718 0)
(0.00202653 0.000689622 0)
(5.09103e-06 0.000239538 0)
(2.0216e-05 0.000448653 0)
(4.20665e-05 0.000534823 0)
(6.53518e-05 0.000563599 0)
(8.85034e-05 0.000563615 0)
(0.000111378 0.000547349 0)
(0.000134099 0.00052022 0)
(0.00015707 0.000484512 0)
(0.000181017 0.000441058 0)
(0.000206997 0.00038995 0)
(0.000236421 0.000330862 0)
(0.000271072 0.000263167 0)
(0.000313099 0.000186006 0)
(0.000365025 9.83006e-05 0)
(0.000429919 -1.2082e-06 0)
(0.000509356 -0.00011203 0)
(0.000603151 -0.000232595 0)
(0.000710899 -0.00036157 0)
(0.000830949 -0.000497087 0)
(0.000960913 -0.000637021 0)
(0.00109808 -0.000779251 0)
(0.00123975 -0.00092179 0)
(0.0013834 -0.00106274 0)
(0.00152689 -0.00120006 0)
(0.00166849 -0.00133126 0)
(0.00180685 -0.00145281 0)
(0.00194089 -0.00155955 0)
(0.0020696 -0.0016441 0)
(0.00219172 -0.00169659 0)
(0.00230528 -0.00170518 0)
(0.00240727 -0.00165761 0)
(0.0024934 -0.00154399 0)
(0.00255835 -0.0013599 0)
(0.00259638 -0.00110887 0)
(0.00260226 -0.000802968 0)
(0.00257209 -0.000460932 0)
(0.00250348 -0.000104157 0)
(0.00239742 0.000249669 0)
(0.00225536 0.000576412 0)
(0.00208494 0.000859448 0)
(4.97318e-06 0.000227924 0)
(1.94126e-05 0.00042911 0)
(3.98323e-05 0.000512837 0)
(6.12784e-05 0.000541097 0)
(8.24821e-05 0.00054121 0)
(0.000103569 0.000525058 0)
(0.000124954 0.000497667 0)
(0.000147394 0.000460972 0)
(0.000172053 0.000415435 0)
(0.000200533 0.00036076 0)
(0.000234898 0.000296202 0)
(0.00027768 0.000220712 0)
(0.000331836 0.000133041 0)
(0.000400794 3.17812e-05 0)
(0.000487542 -8.36708e-05 0)
(0.000590968 -0.000210125 0)
(0.000710286 -0.000345621 0)
(0.000843367 -0.000487657 0)
(0.000987183 -0.000633579 0)
(0.00113836 -0.000780903 0)
(0.00129359 -0.000927506 0)
(0.00144982 -0.00107165 0)
(0.00160448 -0.00121182 0)
(0.00175548 -0.00134645 0)
(0.00190126 -0.0014735 0)
(0.00204071 -0.0015898 0)
(0.00217301 -0.0016904 0)
(0.00229744 -0.00176781 0)
(0.00241298 -0.00181168 0)
(0.00251787 -0.00180924 0)
(0.00260918 -0.00174704 0)
(0.00268265 -0.00161395 0)
(0.00273291 -0.00140477 0)
(0.00275416 -0.00112313 0)
(0.00274128 -0.000782124 0)
(0.00269049 -0.000402163 0)
(0.0026001 -5.25866e-06 0)
(0.00246902 0.000385488 0)
(0.00230255 0.000743431 0)
(0.00210922 0.00105006 0)
(4.69787e-06 0.000216912 0)
(1.79125e-05 0.000411109 0)
(3.60565e-05 0.000493006 0)
(5.47463e-05 0.000521017 0)
(7.31655e-05 0.000521152 0)
(9.18462e-05 0.000504685 0)
(0.000111654 0.000476206 0)
(0.000133873 0.000437215 0)
(0.0001603 0.000387708 0)
(0.000193287 0.000326882 0)
(0.000235762 0.000253474 0)
(0.000291209 0.000165956 0)
(0.000363573 6.26911e-05 0)
(0.000457078 -5.7925e-05 0)
(0.000570333 -0.000191477 0)
(0.000701917 -0.000335078 0)
(0.000849099 -0.00048529 0)
(0.00100814 -0.000638699 0)
(0.00117491 -0.000792273 0)
(0.00134542 -0.000943583 0)
(0.00151603 -0.00109084 0)
(0.00168367 -0.0012328 0)
(0.00184588 -0.0013685 0)
(0.00200077 -0.00149694 0)
(0.00214706 -0.00161658 0)
(0.00228392 -0.00172467 0)
(0.00241086 -0.00181645 0)
(0.00252743 -0.00188433 0)
(0.00263286 -0.0019174 0)
(0.00272556 -0.00190191 0)
(0.00280268 -0.00182305 0)
(0.0028599 -0.00166842 0)
(0.00289177 -0.00143204 0)
(0.00289246 -0.00111767 0)
(0.00285688 -0.0007396 0)
(0.00278145 -0.000319945 0)
(0.00266477 0.000119489 0)
(0.0025054 0.000547343 0)
(0.00231165 0.000935388 0)
(0.00209323 0.00126317 0)
(4.28861e-06 0.000206854 0)
(1.58507e-05 0.000395303 0)
(3.10966e-05 0.000476083 0)
(4.64244e-05 0.000504065 0)
(6.1623e-05 0.000503958 0)
(7.77843e-05 0.000486398 0)
(9.64064e-05 0.000455472 0)
(0.000119513 0.000412146 0)
(0.000149768 0.000355827 0)
(0.000190514 0.000285084 0)
(0.000245799 0.000198038 0)
(0.0003203 9.26361e-05 0)
(0.000419116 -3.32494e-05 0)
(0.000541749 -0.000175235 0)
(0.000685691 -0.000328727 0)
(0.00084755 -0.000489144 0)
(0.00102277 -0.000652043 0)
(0.00120641 -0.000813625 0)
(0.00139368 -0.000970981 0)
(0.00158032 -0.00112212 0)
(0.0017627 -0.00126584 0)
(0.00193792 -0.00140156 0)
(0.00210374 -0.00152897 0)
(0.0022586 -0.00164769 0)
(0.00240153 -0.0017567 0)
(0.00253204 -0.00185369 0)
(0.00264992 -0.00193406 0)
(0.00275504 -0.00199008 0)
(0.00284682 -0.00201023 0)
(0.00292382 -0.00197963 0)