/*--------------------------------*- C++ -*----------------------------------*\
  =========                 |
  \\      /  F ield         | OpenFOAM: The Open Source CFD Toolbox
   \\    /   O peration     | Website:  https://openfoam.org
    \\  /    A nd           | Version:  6
     \\/     M anipulation  |
\*---------------------------------------------------------------------------*/
FoamFile
{
    version     2.0;
    format      ascii;
    class       volScalarField;
    location    "50";
    object      chargeDensity;
}
// * * * * * * * * * * * * * * * * * * * * * * * * * * * * * * * * * * * * * //

dimensions      [0 -3 1 0 0 1 0];

internalField   nonuniform List<scalar> 
8800
(
0.000910776
0.000914851
0.000916686
0.000917752
0.000918449
0.000919092
0.000919768
0.000920503
0.000921298
0.000922149
0.00092305
0.000923991
0.000924966
0.000925966
0.000926985
0.000928017
0.000929055
0.000930095
0.000931133
0.000932165
0.000933187
0.000934197
0.000935193
0.00093617
0.000937126
0.000938058
0.00093896
0.00093983
0.000940663
0.000941457
0.000942209
0.000942921
0.00094357
0.000944184
0.000944777
0.000945348
0.000945899
0.000946428
0.000946932
0.000947407
0.000798074
0.000801394
0.000803482
0.00080473
0.000805587
0.000806323
0.00080706
0.00080784
0.000808675
0.000809562
0.000810497
0.000811472
0.000812477
0.000813505
0.000814547
0.000815597
0.000816649
0.000817696
0.000818735
0.00081976
0.000820768
0.000821756
0.000822723
0.000823664
0.000824576
0.000825458
0.000826304
0.000827111
0.000827875
0.00082859
0.000829245
0.000829785
0.000830249
0.000830687
0.000831101
0.000831496
0.000831873
0.000832232
0.000832573
0.000832893
0.000693459
0.000698129
0.000700467
0.000701794
0.000702675
0.000703429
0.000704183
0.000704977
0.000705824
0.000706723
0.000707665
0.000708642
0.000709645
0.000710664
0.00071169
0.000712715
0.000713731
0.000714731
0.00071571
0.000716664
0.000717588
0.00071848
0.000719336
0.000720156
0.000720936
0.000721675
0.000722369
0.000723013
0.000723599
0.000724104
0.000724449
0.000724657
0.00072485
0.000725013
0.000725155
0.000725285
0.000725406
0.00072552
0.000725628
0.000725729
0.000598197
0.000604957
0.00060789
0.000609311
0.000610175
0.000610895
0.000611618
0.000612387
0.000613209
0.00061408
0.00061499
0.000615929
0.000616884
0.000617845
0.0006188
0.00061974
0.000620655
0.000621539
0.000622384
0.000623186
0.000623942
0.000624647
0.000625302
0.000625905
0.000626456
0.000626952
0.00062739
0.000627759
0.000628034
0.000628147
0.000627985
0.000627858
0.000627701
0.000627523
0.000627335
0.000627147
0.000626966
0.000626795
0.000626634
0.000626485
0.000512806
0.000521805
0.000525511
0.000527124
0.000527994
0.000528668
0.000529332
0.000530039
0.000530797
0.000531598
0.000532431
0.000533281
0.000534135
0.00053498
0.000535801
0.000536589
0.000537333
0.000538025
0.000538659
0.000539229
0.000539733
0.000540169
0.000540536
0.000540837
0.000541071
0.000541235
0.000541321
0.000541302
0.000541112
0.000540589
0.000540084
0.000539569
0.000539035
0.000538494
0.000537961
0.000537448
0.00053696
0.000536503
0.000536078
0.000535684
0.000437058
0.000448357
0.000452913
0.00045478
0.000455681
0.000456307
0.000456892
0.000457508
0.000458165
0.000458855
0.000459564
0.000460276
0.000460974
0.000461645
0.000462272
0.000462846
0.000463354
0.000463789
0.000464145
0.000464417
0.000464604
0.000464707
0.000464725
0.000464662
0.000464517
0.000464285
0.000463945
0.000463444
0.000462658
0.000461673
0.000460783
0.000459889
0.000458995
0.000458115
0.000457266
0.000456457
0.000455699
0.000454994
0.000454343
0.000453744
0.000370441
0.000383998
0.000389422
0.000391569
0.000392517
0.000393093
0.000393586
0.000394086
0.000394611
0.000395154
0.000395699
0.000396229
0.000396727
0.000397176
0.000397563
0.000397874
0.000398099
0.000398232
0.000398267
0.000398201
0.000398034
0.000397769
0.000397407
0.000396951
0.0003964
0.000395741
0.000394941
0.00039392
0.00039253
0.000391253
0.000390019
0.000388798
0.000387599
0.00038644
0.000385335
0.000384296
0.000383331
0.000382443
0.00038163
0.00038089
0.000312286
0.000327918
0.000334181
0.000336617
0.000337622
0.000338148
0.000338539
0.000338908
0.000339279
0.000339648
0.000340001
0.000340319
0.000340586
0.000340784
0.0003409
0.000340923
0.000340842
0.000340653
0.000340351
0.000339936
0.00033941
0.000338775
0.000338036
0.000337194
0.000336244
0.000335167
0.00033391
0.000332361
0.000330647
0.000329099
0.000327596
0.000326126
0.000324705
0.000323347
0.000322069
0.00032088
0.000319789
0.000318798
0.000317903
0.000317097
0.000261822
0.000279228
0.000286265
0.000288988
0.000290055
0.000290535
0.000290822
0.00029105
0.000291256
0.000291438
0.000291584
0.000291676
0.000291698
0.000291635
0.000291474
0.000291204
0.000290819
0.000290314
0.000289687
0.000288941
0.000288079
0.000287104
0.000286022
0.000284831
0.000283524
0.000282073
0.000280416
0.000278426
0.000276585
0.000274849
0.000273168
0.000271542
0.000269989
0.000268524
0.000267161
0.000265909
0.000264776
0.000263762
0.000262863
0.000262068
0.000218236
0.000237041
0.000244758
0.000247758
0.000248894
0.000249333
0.000249519
0.000249609
0.000249648
0.000249642
0.000249581
0.000249449
0.000249231
0.000248914
0.000248488
0.000247943
0.000247276
0.000246483
0.000245567
0.00024453
0.000243378
0.000242115
0.000240746
0.000239269
0.000237673
0.000235928
0.00023398
0.000231775
0.000229843
0.000228009
0.000226246
0.000224559
0.000222966
0.000221481
0.000220116
0.000218879
0.000217777
0.000216812
0.000215978
0.000215258
0.00018073
0.000200519
0.000208804
0.000212062
0.000213274
0.000213684
0.000213779
0.000213739
0.000213621
0.000213437
0.00021318
0.000212839
0.0002124
0.000211853
0.00021119
0.000210404
0.000209493
0.000208458
0.000207302
0.000206031
0.00020465
0.000203166
0.000201582
0.000199896
0.000198092
0.00019613
0.000193914
0.00019177
0.000189826
0.000187986
0.000186231
0.000184568
0.000183015
0.000181584
0.000180285
0.000179124
0.000178112
0.000177247
0.000176525
0.000175928
0.000148551
0.000168899
0.000177629
0.000181124
0.000182418
0.000182813
0.000182833
0.000182679
0.000182421
0.000182078
0.000181648
0.000181122
0.000180492
0.000179748
0.000178886
0.000177903
0.000176798
0.000175574
0.000174238
0.000172795
0.000171255
0.000169622
0.000167902
0.000166089
0.000164167
0.000162098
0.000159804
0.000157757
0.00015588
0.000154114
0.000152443
0.000150877
0.000149428
0.000148108
0.000146923
0.000145878
0.000144987
0.000144251
0.000143668
0.000143217
0.000121008
0.000141508
0.000150553
0.000154259
0.000155644
0.00015604
0.000156004
0.000155757
0.000155382
0.000154904
0.000154329
0.000153651
0.000152864
0.000151964
0.000150948
0.000149816
0.00014857
0.000147215
0.000145759
0.000144211
0.000142579
0.000140871
0.00013909
0.000137232
0.000135279
0.000133199
0.000130972
0.000129065
0.00012732
0.000125694
0.000124171
0.000122755
0.000121455
0.000120281
0.000119235
0.000118324
0.000117563
0.000116959
0.000116515
0.000116213
9.74821e-05
0.000117761
0.00012699
0.000130877
0.000132358
0.000132774
0.000132703
0.000132387
0.00013192
0.000131338
0.000130648
0.000129853
0.000128949
0.000127934
0.00012681
0.000125578
0.000124244
0.000122814
0.000121297
0.000119705
0.000118046
0.000116328
0.000114556
0.000112725
0.000110814
0.00010875
0.000106748
0.000105026
0.000103466
0.000102031
0.0001007
9.947e-05
9.83458e-05
9.73311e-05
9.6427e-05
9.56435e-05
9.50011e-05
9.45108e-05
9.41762e-05
9.40075e-05
7.7427e-05
9.71532e-05
0.000106438
0.000110471
0.000112052
0.000112506
0.000112424
0.000112064
0.000111533
0.000110875
0.000110105
0.000109227
0.000108243
0.000107156
0.000105967
0.000104682
0.000103308
0.000101854
0.00010033
9.8747e-05
9.71167e-05
9.54473e-05
9.37431e-05
9.20001e-05
9.01978e-05
8.82342e-05
8.65017e-05
8.50037e-05
8.36659e-05
8.24557e-05
8.13422e-05
8.03174e-05
7.93768e-05
7.85061e-05
7.77197e-05
7.70458e-05
7.64963e-05
7.60891e-05
7.58342e-05
7.57605e-05
6.03745e-05
7.925e-05
8.84685e-05
9.26143e-05
9.42957e-05
9.48035e-05
9.47325e-05
9.43539e-05
9.37864e-05
9.30818e-05
9.22616e-05
9.13353e-05
9.03084e-05
8.91854e-05
8.79719e-05
8.66759e-05
8.53052e-05
8.38705e-05
8.23838e-05
8.08569e-05
7.93013e-05
7.77263e-05
7.61368e-05
7.45303e-05
7.28903e-05
7.11242e-05
6.96544e-05
6.84045e-05
6.73123e-05
6.6323e-05
6.54291e-05
6.46149e-05
6.38557e-05
6.31254e-05
6.24408e-05
6.18381e-05
6.13344e-05
6.09598e-05
6.07399e-05
6.07078e-05
4.58843e-05
6.3711e-05
7.27257e-05
7.6936e-05
7.87207e-05
7.92969e-05
7.92576e-05
7.88845e-05
7.83063e-05
7.7583e-05
7.67423e-05
7.57982e-05
7.476e-05
7.36351e-05
7.24317e-05
7.11599e-05
6.98288e-05
6.84503e-05
6.70373e-05
6.56023e-05
6.41574e-05
6.27123e-05
6.12731e-05
5.98384e-05
5.83334e-05
5.68483e-05
5.5647e-05
5.46577e-05
5.38223e-05
5.30745e-05
5.24081e-05
5.17974e-05
5.12034e-05
5.05959e-05
4.99822e-05
4.93975e-05
4.88769e-05
4.84675e-05
4.82142e-05
4.81603e-05
3.35818e-05
5.02109e-05
5.89203e-05
6.31441e-05
6.50156e-05
6.56703e-05
6.56837e-05
6.53396e-05
6.47751e-05
6.40573e-05
6.32209e-05
6.22859e-05
6.12643e-05
6.01662e-05
5.90016e-05
5.7779e-05
5.65127e-05
5.52157e-05
5.3901e-05
5.25814e-05
5.12693e-05
4.99749e-05
4.87048e-05
4.74591e-05
4.61234e-05
4.49587e-05
4.40283e-05
4.33006e-05
4.27234e-05
4.22317e-05
4.17937e-05
4.1369e-05
4.09102e-05
4.03818e-05
3.97844e-05
3.91544e-05
3.85452e-05
3.80249e-05
3.76614e-05
3.75143e-05
2.31438e-05
3.8477e-05
4.67947e-05
5.09829e-05
5.29243e-05
5.36601e-05
5.37389e-05
5.34416e-05
5.29113e-05
5.2221e-05
5.14115e-05
5.05076e-05
4.95242e-05
4.84741e-05
4.73691e-05
4.62181e-05
4.50374e-05
4.38412e-05
4.26425e-05
4.14546e-05
4.02899e-05
3.91589e-05
3.80686e-05
3.70208e-05
3.59378e-05
3.50655e-05
3.44067e-05
3.39394e-05
3.36147e-05
3.33655e-05
3.31372e-05
3.28711e-05
3.25078e-05
3.20048e-05
3.13585e-05
3.06099e-05
2.98314e-05
2.91162e-05
2.85588e-05
2.82401e-05
1.42915e-05
2.82757e-05
3.61321e-05
4.02381e-05
4.22283e-05
4.30423e-05
4.3194e-05
4.29571e-05
4.24771e-05
4.18321e-05
4.10675e-05
4.02122e-05
3.92842e-05
3.82987e-05
3.72691e-05
3.62063e-05
3.51266e-05
3.40448e-05
3.29746e-05
3.19294e-05
3.09218e-05
2.99625e-05
2.90589e-05
2.81779e-05
2.74052e-05
2.6818e-05
2.64263e-05
2.62124e-05
2.6128e-05
2.61004e-05
2.60541e-05
2.59095e-05
2.55916e-05
2.50496e-05
2.4278e-05
2.3326e-05
2.22878e-05
2.12848e-05
2.04424e-05
1.98669e-05
6.78479e-06
1.94061e-05
2.67479e-05
3.07285e-05
3.27439e-05
3.36286e-05
3.3856e-05
3.36884e-05
3.32708e-05
3.26846e-05
3.1979e-05
3.11859e-05
3.03266e-05
2.94181e-05
2.84755e-05
2.75116e-05
2.65424e-05
2.55833e-05
2.46482e-05
2.37508e-05
2.29036e-05
2.21176e-05
2.1401e-05
2.0724e-05
2.02331e-05
1.99176e-05
1.97836e-05
1.98118e-05
1.99503e-05
2.01177e-05
2.02176e-05
2.01472e-05
1.98133e-05
1.91551e-05
1.81681e-05
1.69141e-05
1.55126e-05
1.41181e-05
1.28904e-05
1.19651e-05
4.17659e-07
1.16944e-05
1.8484e-05
2.23004e-05
2.43159e-05
2.52599e-05
2.55617e-05
2.5468e-05
2.51208e-05
2.46031e-05
2.39666e-05
2.32457e-05
2.24642e-05
2.16412e-05
2.0793e-05
1.9934e-05
1.90801e-05
1.82467e-05
1.74483e-05
1.66984e-05
1.60096e-05
1.53928e-05
1.48448e-05
1.44115e-05
1.41739e-05
1.41124e-05
1.42223e-05
1.44774e-05
1.48177e-05
1.51486e-05
1.53509e-05
1.52966e-05
1.48714e-05
1.40044e-05
1.26945e-05
1.10217e-05
9.13664e-06
7.23193e-06
5.50579e-06
4.12633e-06
-4.98618e-06
4.98986e-06
1.12045e-05
1.48231e-05
1.68132e-05
1.78022e-05
1.8173e-05
1.81539e-05
1.78813e-05
1.7438e-05
1.68769e-05
1.62345e-05
1.55365e-05
1.48036e-05
1.40533e-05
1.33011e-05
1.25628e-05
1.18542e-05
1.11895e-05
1.05826e-05
1.00457e-05
9.59015e-06
9.20415e-06
9.01898e-06
9.01748e-06
9.19135e-06
9.5282e-06
9.99174e-06
1.0509e-05
1.09666e-05
1.12195e-05
1.11108e-05
1.05027e-05
9.31421e-06
7.55155e-06
5.31988e-06
2.80823e-06
2.53971e-07
-2.10175e-06
-4.05581e-06
-9.57709e-06
-8.38057e-07
4.79173e-06
8.18455e-06
1.01245e-05
1.1142e-05
1.15731e-05
1.16257e-05
1.14281e-05
1.10613e-05
1.05787e-05
1.00177e-05
9.40548e-06
8.76385e-06
8.11138e-06
7.46432e-06
6.83872e-06
6.25006e-06
5.71279e-06
5.24043e-06
4.84527e-06
4.53405e-06
4.35091e-06
4.37629e-06
4.58906e-06
4.97849e-06
5.52323e-06
6.17388e-06
6.83938e-06
7.38155e-06
7.62362e-06
7.37518e-06
6.47245e-06
4.8248e-06
2.45116e-06
-5.09676e-07
-3.8207e-06
-7.19202e-06
-1.03344e-05
-1.30072e-05
-1.34828e-05
-5.90286e-06
-8.55987e-07
2.28901e-06
4.15516e-06
5.18332e-06
5.66341e-06
5.78119e-06
5.65567e-06
5.36433e-06
4.95982e-06
4.47979e-06
3.95242e-06
3.40021e-06
2.8424e-06
2.29587e-06
1.77671e-06
1.30029e-06
8.80934e-07
5.3204e-07
2.65891e-07
8.61996e-08
1.13167e-07
3.3358e-07
7.42157e-07
1.32782e-06
2.0603e-06
2.87435e-06
3.65537e-06
4.23308e-06
4.39149e-06
3.90037e-06
2.56637e-06
2.90776e-07
-2.88805e-06
-6.78687e-06
-1.11091e-05
-1.55031e-05
-1.96255e-05
-2.31958e-05
-1.68115e-05
-1.03031e-05
-5.82721e-06
-2.94613e-06
-1.17526e-06
-1.5502e-07
3.60381e-07
5.34152e-07
4.74493e-07
2.54238e-07
-7.57292e-08
-4.78163e-07
-9.24638e-07
-1.39223e-06
-1.86136e-06
-2.31478e-06
-2.73637e-06
-3.11091e-06
-3.42434e-06
-3.66328e-06
-3.819e-06
-3.82537e-06
-3.62528e-06
-3.2305e-06
-2.64429e-06
-1.88091e-06
-9.81082e-07
-2.92875e-08
8.30167e-07
1.38629e-06
1.37431e-06
5.15806e-07
-1.41651e-06
-4.52753e-06
-8.75079e-06
-1.38454e-05
-1.94415e-05
-2.51145e-05
-3.04612e-05
-3.51572e-05
-1.96543e-05
-1.41243e-05
-1.01991e-05
-7.59223e-06
-5.93569e-06
-4.94195e-06
-4.40652e-06
-4.18855e-06
-4.19144e-06
-4.34802e-06
-4.61002e-06
-4.94127e-06
-5.31363e-06
-5.70417e-06
-6.09325e-06
-6.46347e-06
-6.79876e-06
-7.08405e-06
-7.30557e-06
-7.4496e-06
-7.49305e-06
-7.32879e-06
-6.97104e-06
-6.41783e-06
-5.66987e-06
-4.74563e-06
-3.69836e-06
-2.636e-06
-1.73989e-06
-1.27209e-06
-1.55806e-06
-2.935e-06
-5.66983e-06
-9.87131e-06
-1.54342e-05
-2.20442e-05
-2.92422e-05
-3.65191e-05
-4.34043e-05
-4.95248e-05
-2.20878e-05
-1.74406e-05
-1.40391e-05
-1.17113e-05
-1.01853e-05
-9.23623e-06
-8.6972e-06
-8.44896e-06
-8.40684e-06
-8.51004e-06
-8.71358e-06
-8.98294e-06
-9.29076e-06
-9.61448e-06
-9.93465e-06
-1.02339e-05
-1.04963e-05
-1.07068e-05
-1.08521e-05
-1.09191e-05
-1.08091e-05
-1.05047e-05
-1.00075e-05
-9.31045e-06
-8.4144e-06
-7.3441e-06
-6.1683e-06
-5.02384e-06
-4.13798e-06
-3.83638e-06
-4.51989e-06
-6.59787e-06
-1.03842e-05
-1.5989e-05
-2.32557e-05
-3.17784e-05
-4.09913e-05
-5.02877e-05
-5.91227e-05
-6.70662e-05
-2.41757e-05
-2.03164e-05
-1.74064e-05
-1.53576e-05
-1.39755e-05
-1.30883e-05
-1.25629e-05
-1.23001e-05
-1.22272e-05
-1.229e-05
-1.24475e-05
-1.26671e-05
-1.29227e-05
-1.31924e-05
-1.34572e-05
-1.36999e-05
-1.39046e-05
-1.40561e-05
-1.41399e-05
-1.40963e-05
-1.38542e-05
-1.34261e-05
-1.28026e-05
-1.19729e-05
-1.09394e-05
-9.7353e-06
-8.44857e-06
-7.25166e-06
-6.42855e-06
-6.38371e-06
-7.61136e-06
-1.06098e-05
-1.57495e-05
-2.31398e-05
-3.2559e-05
-4.3489e-05
-5.52392e-05
-6.70928e-05
-7.84237e-05
-8.87302e-05
-2.5971e-05
-2.28072e-05
-2.0353e-05
-1.85788e-05
-1.73511e-05
-1.65422e-05
-1.6048e-05
-1.57879e-05
-1.57006e-05
-1.57387e-05
-1.58651e-05
-1.60499e-05
-1.62682e-05
-1.64992e-05
-1.67243e-05
-1.69267e-05
-1.70903e-05
-1.71992e-05
-1.72174e-05
-1.70391e-05
-1.66855e-05
-1.61471e-05
-1.54069e-05
-1.44522e-05
-1.32886e-05
-1.19602e-05
-1.05788e-05
-9.36042e-06
-8.65864e-06
-8.97494e-06
-1.09189e-05
-1.50988e-05
-2.19547e-05
-3.15943e-05
-4.37162e-05
-5.76697e-05
-7.26213e-05
-8.77327e-05
-0.000102295
-0.000115934
-2.75176e-05
-2.49612e-05
-2.29249e-05
-2.14178e-05
-2.03524e-05
-1.96368e-05
-1.91917e-05
-1.8953e-05
-1.88696e-05
-1.89011e-05
-1.90143e-05
-1.91818e-05
-1.93802e-05
-1.95899e-05
-1.9793e-05
-1.99723e-05
-2.0112e-05
-2.0181e-05
-2.00715e-05
-1.97944e-05
-1.93454e-05
-1.87054e-05
-1.78537e-05
-1.67778e-05
-1.54881e-05
-1.40423e-05
-1.25815e-05
-1.13742e-05
-1.08587e-05
-1.1655e-05
-1.45145e-05
-2.01816e-05
-2.91839e-05
-4.16301e-05
-5.71256e-05
-7.48686e-05
-9.38694e-05
-0.000113159
-0.000132045
-0.000149103
-2.88512e-05
-2.68202e-05
-2.51634e-05
-2.39129e-05
-2.30156e-05
-2.24075e-05
-2.20297e-05
-2.18321e-05
-2.1773e-05
-2.18181e-05
-2.19384e-05
-2.21085e-05
-2.23064e-05
-2.2514e-05
-2.27134e-05
-2.28872e-05
-2.30017e-05
-2.29616e-05
-2.27593e-05
-2.23982e-05
-2.18603e-05
-2.11214e-05
-2.0159e-05
-1.89619e-05
-1.75471e-05
-1.59891e-05
-1.44634e-05
-1.33018e-05
-1.30436e-05
-1.44523e-05
-1.84526e-05
-2.59577e-05
-3.76076e-05
-5.35199e-05
-7.32e-05
-9.56815e-05
-0.000119817
-0.000144503
-0.000168928
-0.000189642
-3.00014e-05
-2.84202e-05
-2.71052e-05
-2.60998e-05
-2.53749e-05
-2.48876e-05
-2.45955e-05
-2.44597e-05
-2.44468e-05
-2.45281e-05
-2.46776e-05
-2.48719e-05
-2.50899e-05
-2.5315e-05
-2.55289e-05
-2.56919e-05
-2.57139e-05
-2.55816e-05
-2.53039e-05
-2.48641e-05
-2.42374e-05
-2.33974e-05
-2.23213e-05
-2.10002e-05
-1.94596e-05
-1.77936e-05
-1.6218e-05
-1.51384e-05
-1.52136e-05
-1.73779e-05
-2.27658e-05
-3.24996e-05
-4.73655e-05
-6.75097e-05
-9.23404e-05
-0.000120728
-0.000151392
-0.000183562
-0.000213328
-0.000239003
-3.0992e-05
-2.97929e-05
-2.8784e-05
-2.80117e-05
-2.74625e-05
-2.71092e-05
-2.69213e-05
-2.68693e-05
-2.69258e-05
-2.70668e-05
-2.72692e-05
-2.75102e-05
-2.77684e-05
-2.80297e-05
-2.82444e-05
-2.83206e-05
-2.82544e-05
-2.80553e-05
-2.77071e-05
-2.71862e-05
-2.64658e-05
-2.5519e-05
-2.43237e-05
-2.28749e-05
-2.12073e-05
-1.94377e-05
-1.78282e-05
-1.68683e-05
-1.73553e-05
-2.04235e-05
-2.74576e-05
-3.98368e-05
-5.85408e-05
-8.37802e-05
-0.00011489
-0.000150601
-0.000189632
-0.00022988
-0.000266728
-0.000298847
-3.18426e-05
-3.09661e-05
-3.02308e-05
-2.96803e-05
-2.93104e-05
-2.91039e-05
-2.90393e-05
-2.90933e-05
-2.92431e-05
-2.94683e-05
-2.9747e-05
-3.00563e-05
-3.03709e-05
-3.06403e-05
-3.07643e-05
-3.07624e-05
-3.06384e-05
-3.03756e-05
-2.99516e-05
-2.93416e-05
-2.85191e-05
-2.7458e-05
-2.61378e-05
-2.45575e-05
-2.27632e-05
-2.08962e-05
-1.92697e-05
-1.84675e-05
-1.94427e-05
-2.35588e-05
-3.24928e-05
-4.79356e-05
-7.11221e-05
-0.000102387
-0.000141049
-0.00018578
-0.000235619
-0.000284558
-0.000330474
-0.000371418
-3.25693e-05
-3.19646e-05
-3.14747e-05
-3.11364e-05
-3.09497e-05
-3.09034e-05
-3.09813e-05
-3.1164e-05
-3.14306e-05
-3.17632e-05
-3.21399e-05
-3.25194e-05
-3.2844e-05
-3.30165e-05
-3.30817e-05
-3.30323e-05
-3.285e-05
-3.25143e-05
-3.20034e-05
-3.12936e-05
-3.03598e-05
-2.91771e-05
-2.77274e-05
-2.60146e-05
-2.40962e-05
-2.21405e-05
-2.05153e-05
-1.99067e-05
-2.14386e-05
-2.6729e-05
-3.77871e-05
-5.66732e-05
-8.49525e-05
-0.000123172
-0.000170739
-0.000226741
-0.000287399
-0.000348127
-0.000406904
-0.000455611
-3.31855e-05
-3.28107e-05
-3.25432e-05
-3.24101e-05
-3.24118e-05
-3.25395e-05
-3.27789e-05
-3.3112e-05
-3.35169e-05
-3.39769e-05
-3.44291e-05
-3.48002e-05
-3.5041e-05
-3.51825e-05
-3.52103e-05
-3.51063e-05
-3.48521e-05
-3.44293e-05
-3.38183e-05
-3.29978e-05
-3.19446e-05
-3.06355e-05
-2.90548e-05
-2.72116e-05
-2.51757e-05
-2.31428e-05
-2.15378e-05
-2.11539e-05
-2.32957e-05
-2.98532e-05
-4.31988e-05
-6.5813e-05
-9.96722e-05
-0.000145648
-0.00020331
-0.000271892
-0.000345271
-0.00042236
-0.000491524
-0.000552438
-3.37024e-05
-3.3525e-05
-3.34623e-05
-3.35308e-05
-3.37275e-05
-3.40429e-05
-3.4462e-05
-3.49648e-05
-3.55203e-05
-3.60571e-05
-3.6486e-05
-3.68103e-05
-3.70354e-05
-3.71442e-05
-3.7118e-05
-3.69407e-05
-3.65969e-05
-3.60717e-05
-3.53485e-05
-3.44085e-05
-3.32307e-05
-3.17939e-05
-3.00849e-05
-2.8118e-05
-2.59751e-05
-2.38794e-05
-2.23132e-05
-2.21776e-05
-2.49597e-05
-3.28272e-05
-4.85277e-05
-7.49906e-05
-0.000114667
-0.000168899
-0.000237964
-0.000318507
-0.000409276
-0.000499587
-0.000584266
-0.000660909
-3.41299e-05
-3.41265e-05
-3.42572e-05
-3.45266e-05
-3.49265e-05
-3.5443e-05
-3.60571e-05
-3.67188e-05
-3.73526e-05
-3.78641e-05
-3.82897e-05
-3.8611e-05
-3.88069e-05
-3.88605e-05
-3.87574e-05
-3.84859e-05
-3.80352e-05
-3.7394e-05
-3.65491e-05
-3.54843e-05
-3.41808e-05
-3.26193e-05
-3.07892e-05
-2.87097e-05
-2.64743e-05
-2.43327e-05
-2.28225e-05
-2.29485e-05
-2.63736e-05
-3.55314e-05
-5.35289e-05
-8.37301e-05
-0.000129049
-0.00019121
-0.000270576
-0.000363267
-0.00047232
-0.00057663
-0.000680557
-0.000777697
-3.44765e-05
-3.46325e-05
-3.4951e-05
-3.54245e-05
-3.60363e-05
-3.67655e-05
-3.7542e-05
-3.82755e-05
-3.89073e-05
-3.94532e-05
-3.98839e-05
-4.01763e-05
-4.03136e-05
-4.02844e-05
-4.00803e-05
-3.9695e-05
-3.91223e-05
-3.8355e-05
-3.73828e-05
-3.61923e-05
-3.47665e-05
-3.3088e-05
-3.11484e-05
-2.89715e-05
-2.66616e-05
-2.44928e-05
-2.30536e-05
-2.34435e-05
-2.74844e-05
-3.78464e-05
-5.79484e-05
-9.15224e-05
-0.000141888
-0.000211142
-0.000298466
-0.000402909
-0.000524987
-0.000645551
-0.000770269
-0.000894277
0.00094785
0.000948257
0.000948624
0.000948946
0.000949221
0.000949447
0.000949625
0.000949758
0.000949857
0.00094996
0.00094996
0.000949857
0.000949758
0.000949625
0.000949447
0.000949221
0.000948946
0.000948624
0.000948257
0.00094785
0.00083319
0.000833459
0.000833699
0.000833905
0.000834077
0.000834214
0.000834315
0.000834387
0.000834439
0.000834494
0.000834494
0.000834439
0.000834387
0.000834315
0.000834214
0.000834077
0.000833905
0.000833699
0.000833459
0.00083319
0.00072582
0.000725899
0.000725964
0.000726013
0.000726044
0.000726057
0.000726055
0.000726043
0.00072603
0.000726035
0.000726035
0.00072603
0.000726043
0.000726055
0.000726057
0.000726044
0.000726013
0.000725964
0.000725899
0.00072582
0.000626344
0.000626209
0.000626079
0.000625952
0.000625826
0.000625703
0.000625585
0.000625479
0.000625395
0.000625357
0.000625357
0.000625395
0.000625479
0.000625585
0.000625703
0.000625826
0.000625952
0.000626079
0.000626209
0.000626344
0.000535319
0.00053498
0.000534664
0.000534369
0.000534094
0.00053384
0.000533611
0.000533413
0.00053326
0.000533176
0.000533176
0.00053326
0.000533413
0.000533611
0.00053384
0.000534094
0.000534369
0.000534664
0.00053498
0.000535319
0.000453193
0.000452687
0.000452221
0.00045179
0.000451395
0.000451035
0.000450714
0.00045044
0.000450228
0.000450105
0.000450105
0.000450228
0.00045044
0.000450714
0.000451035
0.000451395
0.00045179
0.000452221
0.000452687
0.000453193
0.000380216
0.000379601
0.000379039
0.000378524
0.000378052
0.000377624
0.000377243
0.000376918
0.000376666
0.000376516
0.000376516
0.000376666
0.000376918
0.000377243
0.000377624
0.000378052
0.000378524
0.000379039
0.000379601
0.000380216
0.000316372
0.000315719
0.000315126
0.000314585
0.000314091
0.00031364
0.000313238
0.000312892
0.000312622
0.000312459
0.000312459
0.000312622
0.000312892
0.000313238
0.00031364
0.000314091
0.000314585
0.000315126
0.000315719
0.000316372
0.000261366
0.000260743
0.000260186
0.00025968
0.000259216
0.000258791
0.000258405
0.00025807
0.000257804
0.000257643
0.000257643
0.000257804
0.00025807
0.000258405
0.000258791
0.000259216
0.00025968
0.000260186
0.000260743
0.000261366
0.000214642
0.00021411
0.000213645
0.000213227
0.000212842
0.000212483
0.00021215
0.000211852
0.000211612
0.000211465
0.000211465
0.000211612
0.000211852
0.00021215
0.000212483
0.000212842
0.000213227
0.000213645
0.00021411
0.000214642
0.000175443
0.000175047
0.000174716
0.000174427
0.00017416
0.000173901
0.000173647
0.000173409
0.00017321
0.000173086
0.000173086
0.00017321
0.000173409
0.000173647
0.000173901
0.00017416
0.000174427
0.000174716
0.000175047
0.000175443
0.000142888
0.000142652
0.000142482
0.000142348
0.000142222
0.000142085
0.000141932
0.000141769
0.00014162
0.000141527
0.000141527
0.00014162
0.000141769
0.000141932
0.000142085
0.000142222
0.000142348
0.000142482
0.000142652
0.000142888
0.000116042
0.000115973
0.000115972
0.000116002
0.00011603
0.000116028
0.000115984
0.000115905
0.000115814
0.000115754
0.000115754
0.000115814
0.000115905
0.000115984
0.000116028
0.00011603
0.000116002
0.000115972
0.000115973
0.000116042
9.39815e-05
9.40683e-05
9.42301e-05
9.44234e-05
9.46055e-05
9.47404e-05
9.48097e-05
9.48156e-05
9.47823e-05
9.47553e-05
9.47553e-05
9.47823e-05
9.48156e-05
9.48097e-05
9.47404e-05
9.46055e-05
9.44234e-05
9.42301e-05
9.40684e-05
9.39815e-05
7.58462e-05
7.60623e-05
7.63669e-05
7.6709e-05
7.7036e-05
7.73011e-05
7.74779e-05
7.75645e-05
7.75849e-05
7.75869e-05
7.75869e-05
7.75849e-05
7.75645e-05
7.74779e-05
7.73011e-05
7.7036e-05
7.6709e-05
7.63669e-05
7.60623e-05
7.58462e-05
6.08569e-05
6.11613e-05
6.15762e-05
6.2042e-05
6.24946e-05
6.28751e-05
6.31478e-05
6.33057e-05
6.33726e-05
6.33984e-05
6.33984e-05
6.33726e-05
6.33057e-05
6.31478e-05
6.28751e-05
6.24946e-05
6.2042e-05
6.15762e-05
6.11613e-05
6.08569e-05
4.83149e-05
4.86579e-05
4.91418e-05
4.96984e-05
5.02505e-05
5.07254e-05
5.10773e-05
5.12934e-05
5.1397e-05
5.14408e-05
5.14408e-05
5.1397e-05
5.12934e-05
5.10773e-05
5.07254e-05
5.02505e-05
4.96984e-05
4.91418e-05
4.86579e-05
4.83149e-05
3.76091e-05
3.79336e-05
3.84386e-05
3.90464e-05
3.96657e-05
4.02084e-05
4.06179e-05
4.08756e-05
4.10042e-05
4.10589e-05
4.10589e-05
4.10042e-05
4.08756e-05
4.06179e-05
4.02084e-05
3.96657e-05
3.90464e-05
3.84386e-05
3.79336e-05
3.76091e-05
2.82038e-05
2.84468e-05
2.89189e-05
2.95321e-05
3.01803e-05
3.07585e-05
3.11994e-05
3.14784e-05
3.1618e-05
3.16757e-05
3.16757e-05
3.1618e-05
3.14784e-05
3.11994e-05
3.07585e-05
3.01803e-05
2.95321e-05
2.89189e-05
2.84468e-05
2.82038e-05
1.96221e-05
1.9715e-05
2.00939e-05
2.06602e-05
2.12921e-05
2.18669e-05
2.23075e-05
2.25833e-05
2.27175e-05
2.27691e-05
2.27691e-05
2.27175e-05
2.25833e-05
2.23075e-05
2.18669e-05
2.12921e-05
2.06602e-05
2.00939e-05
1.9715e-05
1.96221e-05
1.14272e-05
1.1294e-05
1.1512e-05
1.19708e-05
1.25328e-05
1.30569e-05
1.34582e-05
1.37013e-05
1.38101e-05
1.38451e-05
1.38451e-05
1.38101e-05
1.37013e-05
1.34582e-05
1.30569e-05
1.25328e-05
1.19708e-05
1.1512e-05
1.1294e-05
1.14272e-05
3.20081e-06
2.75594e-06
2.73495e-06
3.01431e-06
3.44112e-06
3.8554e-06
4.16917e-06
4.34166e-06
4.39934e-06
4.40446e-06
4.40446e-06
4.39934e-06
4.34166e-06
4.16917e-06
3.8554e-06
3.44112e-06
3.01431e-06
2.73495e-06
2.75594e-06
3.20081e-06
-5.47843e-06
-6.33508e-06
-6.68832e-06
-6.6765e-06
-6.46643e-06
-6.2389e-06
-6.0745e-06
-6.03941e-06
-6.10468e-06
-6.17086e-06
-6.17086e-06
-6.10468e-06
-6.03941e-06
-6.0745e-06
-6.2389e-06
-6.46643e-06
-6.6765e-06
-6.68832e-06
-6.33508e-06
-5.47843e-06
-1.50586e-05
-1.64491e-05
-1.72504e-05
-1.76188e-05
-1.77294e-05
-1.78779e-05
-1.80442e-05
-1.82142e-05
-1.83541e-05
-1.84594e-05
-1.84594e-05
-1.83541e-05
-1.82142e-05
-1.80442e-05
-1.78779e-05
-1.77294e-05
-1.76188e-05
-1.72504e-05
-1.64491e-05
-1.50586e-05
-2.60409e-05
-2.81201e-05
-2.95196e-05
-3.04693e-05
-3.11779e-05
-3.15725e-05
-3.19157e-05
-3.22422e-05
-3.25102e-05
-3.26851e-05
-3.26851e-05
-3.25102e-05
-3.22422e-05
-3.19157e-05
-3.15725e-05
-3.11779e-05
-3.04693e-05
-2.95196e-05
-2.81201e-05
-2.60409e-05
-3.90095e-05
-4.19818e-05
-4.42574e-05
-4.58843e-05
-4.69355e-05
-4.7733e-05
-4.84248e-05
-4.90147e-05
-4.94535e-05
-4.97156e-05
-4.97156e-05
-4.94535e-05
-4.90147e-05
-4.84248e-05
-4.7733e-05
-4.69355e-05
-4.58843e-05
-4.42574e-05
-4.19818e-05
-3.90095e-05
-5.46691e-05
-5.88833e-05
-6.20849e-05
-6.42837e-05
-6.59415e-05
-6.73004e-05
-6.84521e-05
-6.938e-05
-7.0034e-05
-7.04039e-05
-7.04039e-05
-7.0034e-05
-6.938e-05
-6.84521e-05
-6.73004e-05
-6.59415e-05
-6.42837e-05
-6.20849e-05
-5.88833e-05
-5.46691e-05
-7.39255e-05
-7.95734e-05
-8.3617e-05
-8.6685e-05
-8.91677e-05
-9.12494e-05
-9.29768e-05
-9.43203e-05
-9.52374e-05
-9.57374e-05
-9.57374e-05
-9.52374e-05
-9.43203e-05
-9.29768e-05
-9.12494e-05
-8.91677e-05
-8.6685e-05
-8.3617e-05
-7.95734e-05
-7.39255e-05
-9.78725e-05
-0.000104727
-0.000109969
-0.0001142
-0.000117736
-0.000120704
-0.000123121
-0.000124955
-0.000126181
-0.000126833
-0.000126833
-0.000126181
-0.000124955
-0.000123121
-0.000120704
-0.000117736
-0.0001142
-0.000109969
-0.000104727
-9.78725e-05
-0.000127001
-0.000135563
-0.000142397
-0.000148108
-0.000152918
-0.000156921
-0.00016012
-0.000162503
-0.000164074
-0.000164894
-0.000164894
-0.000164074
-0.000162503
-0.00016012
-0.000156921
-0.000152918
-0.000148108
-0.000142397
-0.000135563
-0.000127001
-0.000162707
-0.000173483
-0.000182326
-0.000189823
-0.000196088
-0.00020122
-0.000205249
-0.000208205
-0.000210132
-0.000211124
-0.000211124
-0.000210132
-0.000208205
-0.000205249
-0.00020122
-0.000196088
-0.000189823
-0.000182326
-0.000173483
-0.000162707
-0.000206493
-0.000220048
-0.000231299
-0.000240808
-0.000248599
-0.00025486
-0.000259686
-0.00026318
-0.000265436
-0.000266586
-0.000266586
-0.000265436
-0.00026318
-0.000259686
-0.00025486
-0.000248599
-0.000240808
-0.000231299
-0.000220048
-0.000206493
-0.000260014
-0.000276908
-0.000290849
-0.000302456
-0.00031162
-0.000318835
-0.00032431
-0.000328231
-0.00033075
-0.000332028
-0.000332028
-0.00033075
-0.000328231
-0.00032431
-0.000318835
-0.00031162
-0.000302456
-0.000290849
-0.000276908
-0.000260014
-0.000325127
-0.000345821
-0.000362223
-0.000375444
-0.000385769
-0.000393693
-0.00039959
-0.000403753
-0.000406406
-0.000407743
-0.000407743
-0.000406406
-0.000403753
-0.00039959
-0.000393693
-0.000385769
-0.000375444
-0.000362223
-0.000345821
-0.000325127
-0.00040311
-0.000427174
-0.000445908
-0.000460368
-0.000471318
-0.000479486
-0.00048543
-0.00048956
-0.000492165
-0.000493471
-0.000493471
-0.000492165
-0.00048956
-0.00048543
-0.000479486
-0.000471318
-0.000460368
-0.000445908
-0.000427174
-0.00040311
-0.000494468
-0.000521929
-0.000542175
-0.000557011
-0.000567803
-0.000575594
-0.000581121
-0.000584892
-0.000587244
-0.000588423
-0.000588423
-0.000587244
-0.000584892
-0.000581121
-0.000575594
-0.000567803
-0.000557011
-0.000542175
-0.000521929
-0.000494468
-0.000600146
-0.000630045
-0.000650431
-0.000664428
-0.000674119
-0.000680849
-0.000685483
-0.000688577
-0.000690483
-0.000691444
-0.000691444
-0.000690483
-0.000688577
-0.000685483
-0.000680849
-0.000674119
-0.000664428
-0.000650431
-0.000630045
-0.000600146
-0.000720201
-0.00075074
-0.000769364
-0.000781087
-0.00078871
-0.000793755
-0.000797099
-0.000799268
-0.000800585
-0.00080126
-0.00080126
-0.000800585
-0.000799268
-0.000797099
-0.000793755
-0.00078871
-0.000781087
-0.000769364
-0.00075074
-0.000720201
-0.000854314
-0.0008826
-0.000897042
-0.000905023
-0.000909791
-0.000912735
-0.000914565
-0.00091569
-0.000916359
-0.000916739
-0.000916739
-0.000916359
-0.00091569
-0.000914565
-0.000912735
-0.000909791
-0.000905023
-0.000897042
-0.0008826
-0.000854314
-0.0010023
-0.00102355
-0.00103076
-0.00103392
-0.00103553
-0.00103631