/*--------------------------------*- C++ -*----------------------------------*\
  =========                 |
  \\      /  F ield         | OpenFOAM: The Open Source CFD Toolbox
   \\    /   O peration     | Website:  https://openfoam.org
    \\  /    A nd           | Version:  6
     \\/     M anipulation  |
\*---------------------------------------------------------------------------*/
FoamFile
{
    version     2.0;
    format      ascii;
    class       volScalarField;
    location    "50";
    object      p;
}
// * * * * * * * * * * * * * * * * * * * * * * * * * * * * * * * * * * * * * //

dimensions      [0 2 -2 0 0 0 0];

internalField   nonuniform List<scalar> 
8800
(
6.37264e-11
3.82095e-07
6.35619e-07
7.61016e-07
8.37973e-07
9.00001e-07
9.58864e-07
1.01956e-06
1.08447e-06
1.1548e-06
1.23126e-06
1.3144e-06
1.40472e-06
1.50279e-06
1.60924e-06
1.7248e-06
1.85023e-06
1.98637e-06
2.13408e-06
2.2942e-06
2.46755e-06
2.65487e-06
2.85679e-06
3.07379e-06
3.30618e-06
3.55407e-06
3.81738e-06
4.09583e-06
4.38897e-06
4.69617e-06
5.01671e-06
5.3499e-06
5.69416e-06
6.04655e-06
6.40427e-06
6.76434e-06
7.12338e-06
7.47773e-06
7.82348e-06
8.15658e-06
-1.63391e-05
-1.65548e-05
-1.66518e-05
-1.66782e-05
-1.669e-05
-1.66997e-05
-1.67092e-05
-1.67186e-05
-1.67277e-05
-1.67359e-05
-1.67426e-05
-1.67472e-05
-1.67489e-05
-1.67468e-05
-1.674e-05
-1.67276e-05
-1.67082e-05
-1.66809e-05
-1.66442e-05
-1.6597e-05
-1.6538e-05
-1.6466e-05
-1.63799e-05
-1.62787e-05
-1.61615e-05
-1.60278e-05
-1.58771e-05
-1.5709e-05
-1.55235e-05
-1.53206e-05
-1.51006e-05
-1.48649e-05
-1.46149e-05
-1.43517e-05
-1.40775e-05
-1.3795e-05
-1.3507e-05
-1.32168e-05
-1.29279e-05
-1.26438e-05
-2.87186e-05
-2.88557e-05
-2.89288e-05
-2.89678e-05
-2.90027e-05
-2.90377e-05
-2.90739e-05
-2.91123e-05
-2.91531e-05
-2.9196e-05
-2.92406e-05
-2.92861e-05
-2.93316e-05
-2.93762e-05
-2.94187e-05
-2.94579e-05
-2.94925e-05
-2.95211e-05
-2.95423e-05
-2.95547e-05
-2.95567e-05
-2.95472e-05
-2.95247e-05
-2.94882e-05
-2.94366e-05
-2.93691e-05
-2.92851e-05
-2.91842e-05
-2.90661e-05
-2.89307e-05
-2.87787e-05
-2.86106e-05
-2.84278e-05
-2.82316e-05
-2.80241e-05
-2.78078e-05
-2.75855e-05
-2.73601e-05
-2.71349e-05
-2.69131e-05
-3.81442e-05
-3.82014e-05
-3.8238e-05
-3.82761e-05
-3.83235e-05
-3.83781e-05
-3.84391e-05
-3.85062e-05
-3.85793e-05
-3.86579e-05
-3.87411e-05
-3.88282e-05
-3.89182e-05
-3.90098e-05
-3.91017e-05
-3.91926e-05
-3.92808e-05
-3.93649e-05
-3.94432e-05
-3.95139e-05
-3.95755e-05
-3.96263e-05
-3.96648e-05
-3.96897e-05
-3.96995e-05
-3.96934e-05
-3.96703e-05
-3.96298e-05
-3.95712e-05
-3.94938e-05
-3.93971e-05
-3.92816e-05
-3.91486e-05
-3.90001e-05
-3.88386e-05
-3.86664e-05
-3.84864e-05
-3.83016e-05
-3.81149e-05
-3.79295e-05
-4.60176e-05
-4.60835e-05
-4.61328e-05
-4.61858e-05
-4.62513e-05
-4.63282e-05
-4.64156e-05
-4.65129e-05
-4.66195e-05
-4.67345e-05
-4.6857e-05
-4.6986e-05
-4.71201e-05
-4.72579e-05
-4.7398e-05
-4.75386e-05
-4.76779e-05
-4.78143e-05
-4.79456e-05
-4.80701e-05
-4.81858e-05
-4.82907e-05
-4.83832e-05
-4.84616e-05
-4.85243e-05
-4.85702e-05
-4.85981e-05
-4.86071e-05
-4.85962e-05
-4.85635e-05
-4.85079e-05
-4.84306e-05
-4.83336e-05
-4.82191e-05
-4.80896e-05
-4.79478e-05
-4.77964e-05
-4.76383e-05
-4.74767e-05
-4.73144e-05
-5.2635e-05
-5.2718e-05
-5.27815e-05
-5.28471e-05
-5.29268e-05
-5.3021e-05
-5.3129e-05
-5.325e-05
-5.33833e-05
-5.35277e-05
-5.3682e-05
-5.38449e-05
-5.40149e-05
-5.41903e-05
-5.43694e-05
-5.45502e-05
-5.47306e-05
-5.49087e-05
-5.50822e-05
-5.52489e-05
-5.54067e-05
-5.55535e-05
-5.56873e-05
-5.58062e-05
-5.59086e-05
-5.5993e-05
-5.60584e-05
-5.61034e-05
-5.61256e-05
-5.61227e-05
-5.60948e-05
-5.60438e-05
-5.59717e-05
-5.58809e-05
-5.57741e-05
-5.56539e-05
-5.55232e-05
-5.5385e-05
-5.52423e-05
-5.50978e-05
-5.81721e-05
-5.82604e-05
-5.83305e-05
-5.84046e-05
-5.84954e-05
-5.86033e-05
-5.87277e-05
-5.88681e-05
-5.90231e-05
-5.91916e-05
-5.93722e-05
-5.95631e-05
-5.97626e-05
-5.99688e-05
-6.01797e-05
-6.0393e-05
-6.06065e-05
-6.08178e-05
-6.10246e-05
-6.12244e-05
-6.14148e-05
-6.15936e-05
-6.17586e-05
-6.19077e-05
-6.20392e-05
-6.21515e-05
-6.22433e-05
-6.23126e-05
-6.23554e-05
-6.23703e-05
-6.23593e-05
-6.23241e-05
-6.22669e-05
-6.21901e-05
-6.20967e-05
-6.19894e-05
-6.18714e-05
-6.17455e-05
-6.16147e-05
-6.14817e-05
-6.28206e-05
-6.29088e-05
-6.29826e-05
-6.30633e-05
-6.31631e-05
-6.32824e-05
-6.34205e-05
-6.35767e-05
-6.37496e-05
-6.39379e-05
-6.41397e-05
-6.43532e-05
-6.45765e-05
-6.48072e-05
-6.50431e-05
-6.52818e-05
-6.55208e-05
-6.57574e-05
-6.5989e-05
-6.62132e-05
-6.64272e-05
-6.66288e-05
-6.68154e-05
-6.69851e-05
-6.71359e-05
-6.72662e-05
-6.73743e-05
-6.74566e-05
-6.75093e-05
-6.75329e-05
-6.75297e-05
-6.75016e-05
-6.74508e-05
-6.738e-05
-6.72923e-05
-6.71908e-05
-6.70787e-05
-6.69589e-05
-6.68342e-05
-6.67073e-05
-6.67416e-05
-6.68271e-05
-6.6903e-05
-6.69889e-05
-6.70957e-05
-6.72238e-05
-6.73725e-05
-6.75409e-05
-6.77276e-05
-6.79309e-05
-6.81488e-05
-6.83793e-05
-6.86202e-05
-6.88688e-05
-6.91229e-05
-6.93796e-05
-6.96363e-05
-6.98902e-05
-7.01385e-05
-7.03786e-05
-7.06077e-05
-7.08232e-05
-7.10228e-05
-7.12041e-05
-7.13653e-05
-7.15047e-05
-7.162e-05
-7.1706e-05
-7.17603e-05
-7.17856e-05
-7.17833e-05
-7.17555e-05
-7.17047e-05
-7.16337e-05
-7.15461e-05
-7.14451e-05
-7.13339e-05
-7.12157e-05
-7.10931e-05
-7.09686e-05
-7.00614e-05
-7.01417e-05
-7.0218e-05
-7.03072e-05
-7.04189e-05
-7.05532e-05
-7.07094e-05
-7.08865e-05
-7.10828e-05
-7.12965e-05
-7.15255e-05
-7.17675e-05
-7.202e-05
-7.22804e-05
-7.2546e-05
-7.28139e-05
-7.30813e-05
-7.33453e-05
-7.36029e-05
-7.38514e-05
-7.40879e-05
-7.431e-05
-7.4515e-05
-7.47007e-05
-7.48651e-05
-7.50063e-05
-7.51212e-05
-7.52043e-05
-7.5255e-05
-7.52764e-05
-7.52699e-05
-7.52375e-05
-7.5182e-05
-7.51067e-05
-7.5015e-05
-7.49106e-05
-7.4797e-05
-7.46771e-05
-7.45537e-05
-7.44291e-05
-7.28796e-05
-7.29527e-05
-7.30277e-05
-7.31185e-05
-7.32331e-05
-7.33711e-05
-7.3532e-05
-7.37143e-05
-7.39164e-05
-7.41364e-05
-7.43718e-05
-7.46203e-05
-7.48791e-05
-7.51456e-05
-7.54169e-05
-7.56899e-05
-7.59618e-05
-7.62295e-05
-7.64902e-05
-7.67408e-05
-7.69787e-05
-7.72011e-05
-7.74056e-05
-7.75898e-05
-7.7752e-05
-7.78899e-05
-7.79983e-05
-7.80736e-05
-7.81174e-05
-7.81316e-05
-7.81176e-05
-7.80774e-05
-7.80143e-05
-7.79316e-05
-7.78333e-05
-7.77232e-05
-7.76048e-05
-7.74813e-05
-7.73552e-05
-7.72288e-05
-7.52761e-05
-7.53402e-05
-7.54125e-05
-7.55034e-05
-7.56188e-05
-7.57584e-05
-7.59212e-05
-7.61058e-05
-7.63103e-05
-7.65326e-05
-7.67703e-05
-7.70208e-05
-7.72814e-05
-7.75491e-05
-7.7821e-05
-7.8094e-05
-7.83653e-05
-7.86316e-05
-7.88901e-05
-7.91378e-05
-7.93721e-05
-7.95902e-05
-7.97896e-05
-7.99681e-05
-8.01238e-05
-8.02541e-05
-8.0353e-05
-8.04183e-05
-8.0453e-05
-8.04578e-05
-8.04342e-05
-8.03847e-05
-8.03123e-05
-8.02209e-05
-8.01146e-05
-7.99974e-05
-7.98731e-05
-7.97448e-05
-7.96149e-05
-7.94857e-05
-7.73146e-05
-7.73687e-05
-7.7437e-05
-7.75265e-05
-7.76411e-05
-7.77802e-05
-7.79425e-05
-7.81266e-05
-7.83305e-05
-7.85519e-05
-7.87884e-05
-7.90371e-05
-7.92954e-05
-7.95602e-05
-7.98286e-05
-8.00975e-05
-8.03639e-05
-8.06247e-05
-8.08771e-05
-8.11182e-05
-8.13452e-05
-8.15555e-05
-8.17467e-05
-8.19165e-05
-8.2063e-05
-8.2183e-05
-8.22706e-05
-8.23251e-05
-8.23495e-05
-8.23441e-05
-8.23104e-05
-8.22509e-05
-8.21691e-05
-8.20686e-05
-8.19539e-05
-8.18294e-05
-8.16989e-05
-8.15654e-05
-8.14312e-05
-8.12985e-05
-7.90466e-05
-7.90899e-05
-7.91532e-05
-7.924e-05
-7.93522e-05
-7.9489e-05
-7.96489e-05
-7.98302e-05
-8.00309e-05
-8.02486e-05
-8.04808e-05
-8.07247e-05
-8.09774e-05
-8.12361e-05
-8.14977e-05
-8.17592e-05
-8.20176e-05
-8.22699e-05
-8.25133e-05
-8.27449e-05
-8.29621e-05
-8.31624e-05
-8.33434e-05
-8.3503e-05
-8.3639e-05
-8.37466e-05
-8.38217e-05
-8.38658e-05
-8.388e-05
-8.38646e-05
-8.38211e-05
-8.37525e-05
-8.3662e-05
-8.35534e-05
-8.3431e-05
-8.32996e-05
-8.31632e-05
-8.30248e-05
-8.28863e-05
-8.27496e-05
-8.05143e-05
-8.05462e-05
-8.06034e-05
-8.06864e-05
-8.0795e-05
-8.09279e-05
-8.10836e-05
-8.12602e-05
-8.14556e-05
-8.16674e-05
-8.18929e-05
-8.21295e-05
-8.23743e-05
-8.26244e-05
-8.28767e-05
-8.31284e-05
-8.33765e-05
-8.36181e-05
-8.38504e-05
-8.40708e-05
-8.42767e-05
-8.44656e-05
-8.46353e-05
-8.47836e-05
-8.49082e-05
-8.5003e-05
-8.50661e-05
-8.51002e-05
-8.51053e-05
-8.5081e-05
-8.50292e-05
-8.4953e-05
-8.48559e-05
-8.47413e-05
-8.46128e-05
-8.44753e-05
-8.43332e-05
-8.41897e-05
-8.4047e-05
-8.39066e-05
-8.17519e-05
-8.1773e-05
-8.18231e-05
-8.19009e-05
-8.20046e-05
-8.21324e-05
-8.22826e-05
-8.2453e-05
-8.26415e-05
-8.28455e-05
-8.30626e-05
-8.329e-05
-8.3525e-05
-8.37646e-05
-8.40059e-05
-8.42461e-05
-8.44824e-05
-8.47119e-05
-8.4932e-05
-8.51401e-05
-8.53338e-05
-8.55107e-05
-8.56686e-05
-8.58054e-05
-8.59179e-05
-8.60006e-05
-8.60531e-05
-8.60784e-05
-8.60763e-05
-8.60462e-05
-8.59888e-05
-8.5907e-05
-8.58046e-05
-8.5685e-05
-8.5552e-05
-8.54098e-05
-8.5263e-05
-8.5115e-05
-8.49682e-05
-8.48242e-05
-8.27879e-05
-8.27992e-05
-8.2842e-05
-8.29135e-05
-8.3011e-05
-8.31326e-05
-8.3276e-05
-8.3439e-05
-8.36193e-05
-8.38143e-05
-8.40216e-05
-8.42385e-05
-8.44623e-05
-8.46903e-05
-8.49195e-05
-8.51471e-05
-8.53706e-05
-8.55872e-05
-8.57944e-05
-8.59899e-05
-8.61711e-05
-8.6336e-05
-8.64825e-05
-8.66088e-05
-8.671e-05
-8.67818e-05
-8.68259e-05
-8.68443e-05
-8.68364e-05
-8.6802e-05
-8.67413e-05
-8.66563e-05
-8.65504e-05
-8.64273e-05
-8.62912e-05
-8.61463e-05
-8.59966e-05
-8.58456e-05
-8.56956e-05
-8.55482e-05
-8.36473e-05
-8.36492e-05
-8.36848e-05
-8.37497e-05
-8.384e-05
-8.39541e-05
-8.40897e-05
-8.42442e-05
-8.44152e-05
-8.46003e-05
-8.47969e-05
-8.50024e-05
-8.52143e-05
-8.54298e-05
-8.56463e-05
-8.58611e-05
-8.60716e-05
-8.62753e-05
-8.64698e-05
-8.66527e-05
-8.6822e-05
-8.69754e-05
-8.71111e-05
-8.72274e-05
-8.73181e-05
-8.73806e-05
-8.74183e-05
-8.74316e-05
-8.74195e-05
-8.73819e-05
-8.73193e-05
-8.72333e-05
-8.7127e-05
-8.70037e-05
-8.68673e-05
-8.6722e-05
-8.65715e-05
-8.64189e-05
-8.62666e-05
-8.6116e-05
-8.43514e-05
-8.43445e-05
-8.43729e-05
-8.44308e-05
-8.45136e-05
-8.46195e-05
-8.47463e-05
-8.48914e-05
-8.50524e-05
-8.52269e-05
-8.54122e-05
-8.56059e-05
-8.58054e-05
-8.60082e-05
-8.62118e-05
-8.64137e-05
-8.66113e-05
-8.68023e-05
-8.69843e-05
-8.71553e-05
-8.73131e-05
-8.74557e-05
-8.75814e-05
-8.76874e-05
-8.77684e-05
-8.78235e-05
-8.78563e-05
-8.78661e-05
-8.78522e-05
-8.7814e-05
-8.77523e-05
-8.76684e-05
-8.75648e-05
-8.74444e-05
-8.73107e-05
-8.71675e-05
-8.70182e-05
-8.68655e-05
-8.67116e-05
-8.65578e-05
-8.49189e-05
-8.49041e-05
-8.49253e-05
-8.49759e-05
-8.50507e-05
-8.5148e-05
-8.52655e-05
-8.54007e-05
-8.55512e-05
-8.57145e-05
-8.58882e-05
-8.60697e-05
-8.62567e-05
-8.64467e-05
-8.66374e-05
-8.68263e-05
-8.70111e-05
-8.71895e-05
-8.73595e-05
-8.75189e-05
-8.76658e-05
-8.77984e-05
-8.79151e-05
-8.8011e-05
-8.80834e-05
-8.81337e-05
-8.81636e-05
-8.81722e-05
-8.81587e-05
-8.81229e-05
-8.8065e-05
-8.79863e-05
-8.78885e-05
-8.77743e-05
-8.76463e-05
-8.75078e-05
-8.73616e-05
-8.72101e-05
-8.7055e-05
-8.68978e-05
-8.53662e-05
-8.53443e-05
-8.53584e-05
-8.54016e-05
-8.54681e-05
-8.55564e-05
-8.56642e-05
-8.57892e-05
-8.59288e-05
-8.60807e-05
-8.62424e-05
-8.64116e-05
-8.6586e-05
-8.67632e-05
-8.6941e-05
-8.71171e-05
-8.72894e-05
-8.74556e-05
-8.76139e-05
-8.77624e-05
-8.78991e-05
-8.80225e-05
-8.81305e-05
-8.82181e-05
-8.8284e-05
-8.83314e-05
-8.83603e-05
-8.83698e-05
-8.83593e-05
-8.83284e-05
-8.82774e-05
-8.8207e-05
-8.81184e-05
-8.80135e-05
-8.78943e-05
-8.7763e-05
-8.76217e-05
-8.74722e-05
-8.73161e-05
-8.71547e-05
-8.57077e-05
-8.56796e-05
-8.5687e-05
-8.57227e-05
-8.57807e-05
-8.58597e-05
-8.59575e-05
-8.60718e-05
-8.62003e-05
-8.63404e-05
-8.64901e-05
-8.66469e-05
-8.68087e-05
-8.69733e-05
-8.71384e-05
-8.73021e-05
-8.74622e-05
-8.76169e-05
-8.77641e-05
-8.79022e-05
-8.80296e-05
-8.81446e-05
-8.82439e-05
-8.83247e-05
-8.83871e-05
-8.84333e-05
-8.84631e-05
-8.84756e-05
-8.84704e-05
-8.84471e-05
-8.84059e-05
-8.83469e-05
-8.82708e-05
-8.81784e-05
-8.80707e-05
-8.79488e-05
-8.78139e-05
-8.76669e-05
-8.7509e-05
-8.73417e-05
-8.59561e-05
-8.5923e-05
-8.59241e-05
-8.59523e-05
-8.60016e-05
-8.6071e-05
-8.61586e-05
-8.6262e-05
-8.6379e-05
-8.65074e-05
-8.66449e-05
-8.67893e-05
-8.69386e-05
-8.70907e-05
-8.72435e-05
-8.73952e-05
-8.75437e-05
-8.76872e-05
-8.78241e-05
-8.79526e-05
-8.80714e-05
-8.81787e-05
-8.82704e-05
-8.83456e-05
-8.84064e-05
-8.84532e-05
-8.84855e-05
-8.8503e-05
-8.85053e-05
-8.84923e-05
-8.84636e-05
-8.84191e-05
-8.83585e-05
-8.82817e-05
-8.81881e-05
-8.80774e-05
-8.79494e-05
-8.78042e-05
-8.76426e-05
-8.74662e-05
-8.61231e-05
-8.60859e-05
-8.60811e-05
-8.6102e-05
-8.61428e-05
-8.62024e-05
-8.62795e-05
-8.63718e-05
-8.64772e-05
-8.65936e-05
-8.67188e-05
-8.68509e-05
-8.69879e-05
-8.71278e-05
-8.72686e-05
-8.74086e-05
-8.7546e-05
-8.76791e-05
-8.78061e-05
-8.79258e-05
-8.80366e-05
-8.8136e-05
-8.82219e-05
-8.82939e-05
-8.83542e-05
-8.84027e-05
-8.84391e-05
-8.84633e-05
-8.84752e-05
-8.84746e-05
-8.8461e-05
-8.84338e-05
-8.83917e-05
-8.83329e-05
-8.82553e-05
-8.81566e-05
-8.8035e-05
-8.78894e-05
-8.77201e-05
-8.7529e-05
-8.62189e-05
-8.61785e-05
-8.61685e-05
-8.61824e-05
-8.62146e-05
-8.62646e-05
-8.63311e-05
-8.64121e-05
-8.65057e-05
-8.661e-05
-8.6723e-05
-8.68428e-05
-8.69675e-05
-8.70954e-05
-8.72246e-05
-8.73534e-05
-8.74801e-05
-8.76032e-05
-8.77211e-05
-8.78326e-05
-8.79359e-05
-8.80282e-05
-8.81089e-05
-8.81795e-05
-8.82404e-05
-8.82916e-05
-8.83333e-05
-8.83656e-05
-8.83887e-05
-8.84025e-05
-8.84064e-05
-8.83989e-05
-8.83775e-05
-8.83387e-05
-8.82779e-05
-8.81906e-05
-8.80728e-05
-8.7922e-05
-8.77379e-05
-8.75232e-05
-8.62527e-05
-8.62102e-05
-8.61955e-05
-8.62027e-05
-8.62267e-05
-8.62671e-05
-8.6323e-05
-8.63926e-05
-8.64744e-05
-8.65665e-05
-8.66672e-05
-8.67747e-05
-8.68873e-05
-8.70034e-05
-8.71212e-05
-8.72392e-05
-8.73557e-05
-8.74693e-05
-8.75786e-05
-8.76822e-05
-8.7778e-05
-8.78647e-05
-8.79421e-05
-8.80117e-05
-8.80737e-05
-8.81283e-05
-8.81759e-05
-8.82173e-05
-8.82528e-05
-8.82824e-05
-8.83054e-05
-8.83194e-05
-8.83203e-05
-8.83021e-05
-8.82575e-05
-8.81788e-05
-8.80593e-05
-8.78948e-05
-8.76846e-05
-8.74321e-05
-8.62329e-05
-8.61891e-05
-8.61704e-05
-8.61715e-05
-8.61876e-05
-8.62186e-05
-8.62639e-05
-8.63221e-05
-8.6392e-05
-8.64718e-05
-8.65602e-05
-8.66555e-05
-8.67561e-05
-8.68606e-05
-8.69673e-05
-8.70748e-05
-8.71815e-05
-8.7286e-05
-8.7387e-05
-8.74829e-05
-8.7572e-05
-8.76538e-05
-8.7729e-05
-8.77981e-05
-8.78614e-05
-8.79195e-05
-8.79734e-05
-8.80241e-05
-8.80726e-05
-8.81189e-05
-8.8162e-05
-8.81983e-05
-8.82217e-05
-8.82233e-05
-8.81918e-05
-8.81156e-05
-8.79846e-05
-8.77926e-05
-8.75385e-05
-8.72274e-05
-8.61669e-05
-8.61227e-05
-8.61007e-05
-8.60962e-05
-8.61048e-05
-8.61267e-05
-8.61616e-05
-8.62085e-05
-8.62664e-05
-8.6334e-05
-8.641e-05
-8.64931e-05
-8.65818e-05
-8.66749e-05
-8.67707e-05
-8.6868e-05
-8.69652e-05
-8.7061e-05
-8.7154e-05
-8.72424e-05
-8.73258e-05
-8.74038e-05
-8.74768e-05
-8.75453e-05
-8.76096e-05
-8.7671e-05
-8.77308e-05
-8.77906e-05
-8.78518e-05
-8.79147e-05
-8.79776e-05
-8.80358e-05
-8.80803e-05
-8.80982e-05
-8.80733e-05
-8.7989e-05
-8.7831e-05
-8.75904e-05
-8.72662e-05
-8.68659e-05
-8.60615e-05
-8.60175e-05
-8.59929e-05
-8.59835e-05
-8.59851e-05
-8.59983e-05
-8.60231e-05
-8.60588e-05
-8.61048e-05
-8.61601e-05
-8.62238e-05
-8.62947e-05
-8.63716e-05
-8.64533e-05
-8.65384e-05
-8.66257e-05
-8.67136e-05
-8.68009e-05
-8.68859e-05
-8.69682e-05
-8.70466e-05
-8.71211e-05
-8.71918e-05
-8.7259e-05
-8.73238e-05
-8.73875e-05
-8.74522e-05
-8.752e-05
-8.75928e-05
-8.76709e-05
-8.77522e-05
-8.78299e-05
-8.78915e-05
-8.79189e-05
-8.78895e-05
-8.77801e-05
-8.75709e-05
-8.72503e-05
-8.6818e-05
-8.62851e-05
-8.59226e-05
-8.58796e-05
-8.5853e-05
-8.58392e-05
-8.58345e-05
-8.58394e-05
-8.58543e-05
-8.58791e-05
-8.59133e-05
-8.59564e-05
-8.60078e-05
-8.60665e-05
-8.61316e-05
-8.62021e-05
-8.62767e-05
-8.63541e-05
-8.64329e-05
-8.65117e-05
-8.65899e-05
-8.66666e-05
-8.67405e-05
-8.68113e-05
-8.68791e-05
-8.69443e-05
-8.70083e-05
-8.70729e-05
-8.71407e-05
-8.72144e-05
-8.72964e-05
-8.73872e-05
-8.74834e-05
-8.75758e-05
-8.76473e-05
-8.76728e-05
-8.76213e-05
-8.7461e-05
-8.71652e-05
-8.67186e-05
-8.61222e-05
-8.53917e-05
-8.57556e-05
-8.57141e-05
-8.56862e-05
-8.56687e-05
-8.56581e-05
-8.56552e-05
-8.56607e-05
-8.56748e-05
-8.56974e-05
-8.57284e-05
-8.57675e-05
-8.58141e-05
-8.58675e-05
-8.59269e-05
-8.59911e-05
-8.60587e-05
-8.61286e-05
-8.62001e-05
-8.62727e-05
-8.6344e-05
-8.64131e-05
-8.64796e-05
-8.65435e-05
-8.66055e-05
-8.6667e-05
-8.67304e-05
-8.67986e-05
-8.68752e-05
-8.69628e-05
-8.70617e-05
-8.71671e-05
-8.72664e-05
-8.73361e-05
-8.73422e-05
-8.72428e-05
-8.69945e-05
-8.65618e-05
-8.59247e-05
-8.5089e-05
-8.40714e-05
-8.55653e-05
-8.55258e-05
-8.54972e-05
-8.54764e-05
-8.54606e-05
-8.54504e-05
-8.54469e-05
-8.54506e-05
-8.54617e-05
-8.54807e-05
-8.55076e-05
-8.55422e-05
-8.5584e-05
-8.56324e-05
-8.56861e-05
-8.57442e-05
-8.58066e-05
-8.58725e-05
-8.59392e-05
-8.6005e-05
-8.60689e-05
-8.61304e-05
-8.61893e-05
-8.62465e-05
-8.63033e-05
-8.63627e-05
-8.6428e-05
-8.65032e-05
-8.65912e-05
-8.66917e-05
-8.67978e-05
-8.68921e-05
-8.69431e-05
-8.69048e-05
-8.67206e-05
-8.63324e-05
-8.56931e-05
-8.478e-05
-8.35921e-05
-8.21809e-05
-8.53559e-05
-8.53189e-05
-8.529e-05
-8.52666e-05
-8.5246e-05
-8.5229e-05
-8.52169e-05
-8.52104e-05
-8.52103e-05
-8.52175e-05
-8.52323e-05
-8.52549e-05
-8.52852e-05
-8.53224e-05
-8.5366e-05
-8.54165e-05
-8.54731e-05
-8.55331e-05
-8.55939e-05
-8.5654e-05
-8.57123e-05
-8.57679e-05
-8.58205e-05
-8.58707e-05
-8.59204e-05
-8.59723e-05
-8.60304e-05
-8.60988e-05
-8.61804e-05
-8.62738e-05
-8.63689e-05
-8.6442e-05
-8.6451e-05
-8.63342e-05
-8.60152e-05
-8.54147e-05
-8.44693e-05
-8.31586e-05
-8.14789e-05
-7.95199e-05
-8.51315e-05
-8.50973e-05
-8.50685e-05
-8.50428e-05
-8.50178e-05
-8.49945e-05
-8.4974e-05
-8.49576e-05
-8.49466e-05
-8.4942e-05
-8.49448e-05
-8.49555e-05
-8.49742e-05
-8.50008e-05
-8.50368e-05
-8.50816e-05
-8.51324e-05
-8.51861e-05
-8.5241e-05
-8.52953e-05
-8.53474e-05
-8.5396e-05
-8.54407e-05
-8.5482e-05
-8.55214e-05
-8.55621e-05
-8.56079e-05
-8.56631e-05
-8.57299e-05
-8.58051e-05
-8.58743e-05
-8.59053e-05
-8.5842e-05
-8.56024e-05
-8.50838e-05
-8.41796e-05
-8.2814e-05
-8.09274e-05
-7.85632e-05
-7.5843e-05
-8.48954e-05
-8.48643e-05
-8.4836e-05
-8.48083e-05
-8.47792e-05
-8.47497e-05
-8.47212e-05
-8.46952e-05
-8.46734e-05
-8.46573e-05
-8.4648e-05
-8.46467e-05
-8.46546e-05
-8.4674e-05
-8.47045e-05
-8.47434e-05
-8.47877e-05
-8.48356e-05
-8.48847e-05
-8.4933e-05
-8.49782e-05
-8.50189e-05
-8.50541e-05
-8.5084e-05
-8.51102e-05
-8.51353e-05
-8.51634e-05
-8.5198e-05
-8.52404e-05
-8.52844e-05
-8.53096e-05
-8.5273e-05
-8.51003e-05
-8.4683e-05
-8.38828e-05
-8.25589e-05
-8.06063e-05
-7.7951e-05
-7.46355e-05
-7.0879e-05
-8.46513e-05
-8.46233e-05
-8.45955e-05
-8.4566e-05
-8.45331e-05
-8.44976e-05
-8.44613e-05
-8.44259e-05
-8.43934e-05
-8.43656e-05
-8.43445e-05
-8.43331e-05
-8.43341e-05
-8.43479e-05
-8.43721e-05
-8.44044e-05
-8.4443e-05
-8.44855e-05
-8.45292e-05
-8.45713e-05
-8.46093e-05
-8.4641e-05
-8.46652e-05
-8.46815e-05
-8.46912e-05
-8.46965e-05
-8.47011e-05
-8.47076e-05
-8.47153e-05
-8.47138e-05
-8.46751e-05
-8.45421e-05
-8.4218e-05
-8.35592e-05
-8.23806e-05
-8.05114e-05
-7.77639e-05
-7.40857e-05
-6.9522e-05
-6.44141e-05
-8.44021e-05
-8.43773e-05
-8.435e-05
-8.43187e-05
-8.42819e-05
-8.42407e-05
-8.41966e-05
-8.41518e-05
-8.41086e-05
-8.40697e-05
-8.40397e-05
-8.40219e-05
-8.40172e-05
-8.40242e-05
-8.40418e-05
-8.40686e-05
-8.41024e-05
-8.41403e-05
-8.4179e-05
-8.42151e-05
-8.42455e-05
-8.42675e-05
-8.42793e-05
-8.42799e-05
-8.42701e-05
-8.42518e-05
-8.42275e-05
-8.41986e-05
-8.41615e-05
-8.41006e-05
-8.39777e-05
-8.3719e-05
-8.32003e-05
-8.2238e-05
-8.05922e-05
-7.80037e-05
-7.42858e-05
-6.93249e-05
-6.32255e-05
-5.61581e-05
-8.41512e-05
-8.41292e-05
-8.41023e-05
-8.4069e-05
-8.40284e-05
-8.39813e-05
-8.39295e-05
-8.38752e-05
-8.38222e-05
-8.37757e-05
-8.37396e-05
-8.37156e-05
-8.37039e-05
-8.37048e-05
-8.37175e-05
-8.37403e-05
-8.37706e-05
-8.38048e-05
-8.38392e-05
-8.38697e-05
-8.38926e-05
-8.39044e-05
-8.39026e-05
-8.3886e-05
-8.38544e-05
-8.3809e-05
-8.37514e-05
-8.3681e-05
-8.35907e-05
-8.34584e-05
-8.32344e-05
-8.28248e-05
-8.20725e-05
-8.07448e-05
-7.85491e-05
-7.50852e-05
-7.03131e-05
-6.3917e-05
-5.6069e-05
-4.62438e-05
-8.39014e-05
-8.38819e-05
-8.38549e-05
-8.38196e-05
-8.37749e-05
-8.37219e-05
-8.36624e-05
-8.36002e-05
-8.35405e-05
-8.34881e-05
-8.34454e-05
-8.34147e-05
-8.33973e-05
-8.33939e-05
-8.34036e-05
-8.34242e-05
-8.34526e-05
-8.34846e-05
-8.35157e-05
-8.35413e-05
-8.35568e-05
-8.35583e-05
-8.35425e-05
-8.35075e-05
-8.34525e-05
-8.3378e-05
-8.32841e-05
-8.31682e-05
-8.30194e-05
-8.28085e-05
-8.24736e-05
-8.19002e-05
-8.09004e-05
-7.91952e-05
-7.63944e-05
-7.20321e-05
-6.61291e-05
-5.86301e-05
-4.93526e-05
-3.58232e-05
-8.36557e-05
-8.36379e-05
-8.36106e-05
-8.35728e-05
-8.35239e-05
-8.3465e-05
-8.33992e-05
-8.33313e-05
-8.32661e-05
-8.3207e-05
-8.31581e-05
-8.31223e-05
-8.31016e-05
-8.30963e-05
-8.31052e-05
-8.31258e-05
-8.31541e-05
-8.31856e-05
-8.32148e-05
-8.32366e-05
-8.32455e-05
-8.32369e-05
-8.3207e-05
-8.31533e-05
-8.30744e-05
-8.29698e-05
-8.28387e-05
-8.26762e-05
-8.24676e-05
-8.21773e-05
-8.17316e-05
-8.09977e-05
-7.97605e-05
-7.77122e-05
-7.43699e-05
-6.92649e-05
-6.24385e-05
-5.42204e-05
-4.3457e-05
-2.23098e-05
8.47293e-06
8.76842e-06
9.03903e-06
9.28096e-06
9.49064e-06
9.66497e-06
9.80135e-06
9.89786e-06
9.9533e-06
9.97083e-06
9.97083e-06
9.9533e-06
9.89786e-06
9.80135e-06
9.66497e-06
9.49064e-06
9.28096e-06
9.03904e-06
8.76842e-06
8.47293e-06
-1.23683e-05
-1.21051e-05
-1.18579e-05
-1.16304e-05
-1.14259e-05
-1.12477e-05
-1.10985e-05
-1.09809e-05
-1.08972e-05
-1.08512e-05
-1.08512e-05
-1.08972e-05
-1.09809e-05
-1.10985e-05
-1.12477e-05
-1.14259e-05
-1.16304e-05
-1.18579e-05
-1.21051e-05
-1.23683e-05
-2.66981e-05
-2.64932e-05
-2.63019e-05
-2.61273e-05
-2.59725e-05
-2.58403e-05
-2.57331e-05
-2.56532e-05
-2.56027e-05
-2.55829e-05
-2.55829e-05
-2.56027e-05
-2.56532e-05
-2.57331e-05
-2.58403e-05
-2.59725e-05
-2.61273e-05
-2.63019e-05
-2.64932e-05
-2.66981e-05
-3.77487e-05
-3.75756e-05
-3.74134e-05
-3.72652e-05
-3.7134e-05
-3.70226e-05
-3.69332e-05
-3.6868e-05
-3.68296e-05
-3.68188e-05
-3.68188e-05
-3.68296e-05
-3.6868e-05
-3.69332e-05
-3.70226e-05
-3.7134e-05
-3.72652e-05
-3.74134e-05
-3.75756e-05
-3.77487e-05
-4.71545e-05
-4.7e-05
-4.68541e-05
-4.67195e-05
-4.65993e-05
-4.64961e-05
-4.64122e-05
-4.63499e-05
-4.63119e-05
-4.62998e-05
-4.62998e-05
-4.63119e-05
-4.63499e-05
-4.64122e-05
-4.64961e-05
-4.65993e-05
-4.67195e-05
-4.68541e-05
-4.7e-05
-4.71545e-05
-5.49545e-05
-5.48151e-05
-5.46826e-05
-5.45597e-05
-5.44493e-05
-5.43541e-05
-5.42763e-05
-5.42181e-05
-5.41822e-05
-5.41703e-05
-5.41703e-05
-5.41822e-05
-5.42181e-05
-5.42763e-05
-5.43541e-05
-5.44493e-05
-5.45597e-05
-5.46826e-05
-5.48151e-05
-5.49545e-05
-6.13491e-05
-6.12196e-05
-6.1096e-05
-6.09808e-05
-6.08768e-05
-6.07867e-05
-6.07127e-05
-6.06572e-05
-6.06225e-05
-6.06103e-05
-6.06103e-05
-6.06225e-05
-6.06572e-05
-6.07127e-05
-6.07867e-05
-6.08768e-05
-6.09808e-05
-6.1096e-05
-6.12196e-05
-6.13491e-05
-6.65806e-05
-6.64566e-05
-6.63378e-05
-6.62267e-05
-6.61259e-05
-6.6038e-05
-6.59655e-05
-6.59105e-05
-6.58755e-05
-6.58618e-05
-6.58618e-05
-6.58755e-05
-6.59105e-05
-6.59655e-05
-6.6038e-05
-6.61259e-05
-6.62267e-05
-6.63378e-05
-6.64566e-05
-6.65806e-05
-7.08445e-05
-7.0723e-05
-7.06064e-05
-7.04969e-05
-7.03972e-05
-7.03098e-05
-7.02372e-05
-7.01816e-05
-7.01454e-05
-7.01299e-05
-7.01299e-05
-7.01454e-05
-7.01816e-05
-7.02372e-05
-7.03098e-05
-7.03972e-05
-7.04969e-05
-7.06064e-05
-7.0723e-05
-7.08445e-05
-7.43053e-05
-7.41843e-05
-7.40681e-05
-7.39589e-05
-7.38589e-05
-7.37708e-05
-7.36972e-05
-7.36403e-05
-7.36025e-05
-7.35851e-05
-7.35851e-05
-7.36025e-05
-7.36403e-05
-7.36972e-05
-7.37708e-05
-7.38589e-05
-7.39589e-05
-7.40681e-05
-7.41843e-05
-7.43053e-05
-7.71039e-05
-7.69821e-05
-7.68651e-05
-7.6755e-05
-7.6654e-05
-7.65645e-05
-7.64893e-05
-7.64307e-05
-7.6391e-05
-7.63718e-05
-7.63718e-05
-7.6391e-05
-7.64307e-05
-7.64893e-05
-7.65645e-05
-7.6654e-05
-7.6755e-05
-7.68651e-05
-7.69821e-05
-7.71039e-05
-7.93587e-05
-7.92352e-05
-7.91168e-05
-7.90053e-05
-7.89026e-05
-7.88113e-05
-7.8734e-05
-7.86735e-05
-7.86319e-05
-7.8611e-05
-7.8611e-05
-7.86319e-05
-7.86735e-05
-7.8734e-05
-7.88113e-05
-7.89026e-05
-7.90053e-05
-7.91168e-05
-7.92352e-05
-7.93587e-05
-8.11688e-05
-8.10431e-05
-8.09228e-05
-8.08092e-05
-8.07045e-05
-8.06109e-05
-8.05313e-05
-8.04685e-05
-8.04249e-05
-8.04025e-05
-8.04025e-05
-8.04249e-05
-8.04685e-05
-8.05313e-05
-8.06109e-05
-8.07045e-05
-8.08092e-05
-8.09228e-05
-8.10431e-05
-8.11688e-05
-8.26167e-05
-8.24883e-05
-8.23654e-05
-8.22493e-05
-8.21419e-05
-8.20456e-05
-8.19631e-05
-8.18975e-05
-8.18516e-05
-8.18274e-05
-8.18274e-05
-8.18516e-05
-8.18975e-05
-8.19631e-05
-8.20456e-05
-8.21419e-05
-8.22493e-05
-8.23654e-05
-8.24883e-05
-8.26167e-05
-8.37702e-05
-8.36384e-05
-8.35122e-05
-8.33928e-05
-8.32818e-05
-8.31819e-05
-8.30958e-05
-8.30269e-05
-8.29781e-05
-8.29517e-05
-8.29517e-05
-8.29781e-05
-8.30269e-05
-8.30958e-05
-8.31819e-05
-8.32818e-05
-8.33928e-05
-8.35122e-05
-8.36384e-05
-8.37702e-05
-8.46841e-05
-8.45486e-05
-8.44184e-05
-8.42947e-05
-8.41794e-05
-8.40749e-05
-8.39843e-05
-8.39113e-05
-8.38588e-05
-8.38295e-05
-8.38295e-05
-8.38588e-05
-8.39113e-05
-8.39843e-05
-8.40749e-05
-8.41794e-05
-8.42947e-05
-8.44184e-05
-8.45486e-05
-8.46841e-05
-8.54043e-05
-8.52644e-05
-8.51295e-05
-8.50005e-05
-8.48796e-05
-8.47693e-05
-8.46732e-05
-8.4595e-05
-8.4538e-05
-8.45048e-05
-8.45048e-05
-8.4538e-05
-8.4595e-05
-8.46732e-05
-8.47693e-05
-8.48796e-05
-8.50005e-05
-8.51295e-05
-8.52644e-05
-8.54043e-05
-8.59679e-05
-8.5823e-05
-8.56822e-05
-8.55467e-05
-8.54189e-05
-8.53016e-05
-8.51987e-05
-8.51142e-05
-8.50516e-05
-8.50136e-05
-8.50136e-05
-8.50516e-05
-8.51142e-05
-8.51987e-05
-8.53016e-05
-8.54189e-05
-8.55467e-05
-8.56822e-05
-8.5823e-05
-8.59679e-05
-8.6405e-05
-8.62541e-05
-8.61061e-05
-8.59627e-05
-8.58265e-05
-8.57008e-05
-8.55896e-05
-8.54977e-05
-8.54284e-05
-8.53849e-05
-8.53849e-05
-8.54284e-05
-8.54977e-05
-8.55896e-05
-8.57008e-05
-8.58265e-05
-8.59627e-05
-8.61061e-05
-8.62541e-05
-8.6405e-05
-8.67395e-05
-8.65811e-05
-8.64243e-05
-8.62712e-05
-8.61248e-05
-8.59891e-05
-8.58684e-05
-8.57679e-05
-8.56911e-05
-8.56415e-05
-8.56415e-05
-8.56911e-05
-8.57679e-05
-8.58684e-05
-8.59891e-05
-8.61248e-05
-8.62712e-05
-8.64243e-05
-8.65811e-05
-8.67395e-05
-8.69893e-05
-8.68215e-05
-8.66536e-05
-8.64885e-05
-8.63299e-05
-8.61824e-05
-8.6051e-05
-8.59412e-05
-8.58567e-05
-8.58009e-05
-8.58009e-05
-8.58567e-05
-8.59412e-05
-8.6051e-05
-8.61824e-05
-8.63299e-05
-8.64885e-05
-8.66536e-05
-8.68215e-05
-8.69893e-05
-8.71667e-05
-8.69864e-05
-8.68042e-05
-8.66241e-05
-8.64509e-05
-8.62905e-05
-8.61478e-05
-8.60287e-05
-8.59367e-05
-8.58752e-05
-8.58752e-05
-8.59367e-05
-8.60287e-05
-8.61478e-05
-8.62905e-05
-8.64509e-05
-8.66241e-05
-8.68042e-05
-8.69864e-05
-8.71667e-05
-8.72774e-05
-8.708e-05
-8.68788e-05
-8.66798e-05
-8.64893e-05
-8.6314e-05
-8.61584e-05
-8.60271e-05
-8.59236e-05
-8.58541e-05
-8.58541e-05
-8.59236e-05
-8.60271e-05
-8.61584e-05
-8.6314e-05
-8.64893e-05
-8.66798e-05
-8.68788e-05
-8.708e-05
-8.72774e-05
-8.73198e-05
-8.7098e-05
-8.68712e-05
-8.66472e-05
-8.64322e-05
-8.6229e-05
-8.6047e-05
-8.58943e-05
-8.57759e-05
-8.56978e-05
-8.56978e-05
-8.57759e-05
-8.58943e-05
-8.6047e-05
-8.6229e-05
-8.64322e-05
-8.66472e-05
-8.68712e-05
-8.7098e-05
-8.73198e-05
-8.72831e-05
-8.70262e-05
-8.67622e-05
-8.64972e-05
-8.62374e-05
-8.59934e-05
-8.57786e-05
-8.56029e-05
-8.54711e-05
-8.53864e-05
-8.53864e-05
-8.54711e-05
-8.56029e-05
-8.57786e-05
-8.59934e-05
-8.62374e-05
-8.64972e-05
-8.67622e-05
-8.70262e-05
-8.72831e-05
-8.71455e-05
-8.68363e-05
-8.65125e-05
-8.61835e-05
-8.58665e-05
-8.55798e-05
-8.53336e-05
-8.51355e-05
-8.49894e-05
-8.48984e-05
-8.48984e-05
-8.49894e-05
-8.51355e-05
-8.53336e-05
-8.55798e-05
-8.58665e-05
-8.61835e-05
-8.65125e-05
-8.68363e-05
-8.71455e-05
-8.68708e-05
-8.64809e-05
-8.60696e-05
-8.56616e-05
-8.52805e-05
-8.49415e-05
-8.46542e-05
-8.44264e-05
-8.42621e-05
-8.41639e-05
-8.41639e-05
-8.42621e-05
-8.44264e-05
-8.46542e-05
-8.49415e-05
-8.52805e-05
-8.56616e-05
-8.60696e-05
-8.64809e-05
-8.68708e-05
-8.64046e-05
-8.58956e-05
-8.53715e-05
-8.48654e-05
-8.43998e-05
-8.39899e-05
-8.36466e-05
-8.33782e-05
-8.31889e-05
-8.30813e-05
-8.30813e-05
-8.31889e-05
-8.33782e-05
-8.36466e-05
-8.39899e-05
-8.43998e-05
-8.48654e-05
-8.53715e-05
-8.58956e-05
-8.64046e-05
-8.56667e-05
-8.49985e-05
-8.43276e-05
-8.36898e-05
-8.31092e-05
-8.26033e-05
-8.21844e-05
-8.18608e-05
-8.16372e-05
-8.1516e-05
-8.1516e-05
-8.16372e-05
-8.18608e-05
-8.21844e-05
-8.26033e-05
-8.31092e-05
-8.36898e-05
-8.43276e-05
-8.49985e-05
-8.56667e-05
-8.45556e-05
-8.36755e-05
-8.28065e-05
-8.19904e-05
-8.12558e-05
-8.06223e-05
-8.0103e-05
-7.97061e-05
-7.94361e-05
-7.92952e-05
-7.92952e-05
-7.94361e-05
-7.97061e-05
-8.0103e-05
-8.06223e-05
-8.12558e-05
-8.19904e-05
-8.28065e-05
-8.36755e-05
-8.45556e-05
-8.29397e-05
-8.177e-05
-8.06327e-05
-7.95792e-05
-7.86424e-05
-7.78434e-05
-7.71949e-05
-7.67039e-05
-7.63738e-05
-7.6206e-05
-7.6206e-05
-7.63738e-05
-7.67039e-05
-7.71949e-05
-7.78434e-05
-7.86424e-05
-7.95792e-05
-8.06327e-05
-8.177e-05
-8.29397e-05
-8.06393e-05
-7.9074e-05
-7.7579e-05
-7.62164e-05
-7.50214e-05
-7.40145e-05
-7.32065e-05
-7.26009e-05
-7.21978e-05
-7.19963e-05
-7.19963e-05
-7.21978e-05
-7.26009e-05
-7.32065e-05
-7.40145e-05
-7.50214e-05
-7.62164e-05
-7.7579e-05
-7.9074e-05
-8.06393e-05
-7.74151e-05
-7.53201e-05
-7.33595e-05
-7.16076e-05
-7.00967e-05
-6.88395e-05
-6.78435e-05
-6.71056e-05
-6.66199e-05
-6.63808e-05
-6.63808e-05
-6.66199e-05
-6.71056e-05
-6.78435e-05
-6.88395e-05
-7.00967e-05
-7.16076e-05
-7.33595e-05
-7.53201e-05
-7.74151e-05
-7.29739e-05
-7.0196e-05
-6.76479e-05
-6.54057e-05
-6.35115e-05
-6.19688e-05
-6.07673e-05
-5.98894e-05
-5.93189e-05
-5.90434e-05
-5.90434e-05
-5.93189e-05
-5.98894e-05
-6.07673e-05
-6.19688e-05
-6.35115e-05
-6.54057e-05
-6.76479e-05
-7.0196e-05
-7.29739e-05