/*--------------------------------*- C++ -*----------------------------------*\
  =========                 |
  \\      /  F ield         | OpenFOAM: The Open Source CFD Toolbox
   \\    /   O peration     | Website:  https://openfoam.org
    \\  /    A nd           | Version:  6
     \\/     M anipulation  |
\*---------------------------------------------------------------------------*/
FoamFile
{
    version     2.0;
    format      ascii;
    class       volScalarField;
    location    "40";
    object      chargeDensity;
}
// * * * * * * * * * * * * * * * * * * * * * * * * * * * * * * * * * * * * * //

dimensions      [0 -3 1 0 0 1 0];

internalField   nonuniform List<scalar> 
8800
(
0.000508785
0.000509958
0.000510445
0.000510621
0.000510623
0.000510529
0.00051038
0.000510199
0.000509989
0.000509753
0.000509489
0.000509199
0.000508882
0.000508539
0.000508171
0.000507779
0.000507361
0.000506921
0.000506458
0.000505974
0.000505468
0.000504936
0.000504373
0.000503787
0.00050318
0.000502547
0.000501884
0.000501185
0.00050044
0.000499643
0.000498788
0.000497879
0.000496923
0.000495936
0.000494943
0.000493962
0.000493022
0.000492133
0.0004913
0.000490528
0.00048133
0.000482297
0.000482835
0.000483022
0.000483032
0.000482956
0.000482833
0.000482675
0.000482489
0.000482277
0.00048204
0.000481777
0.00048149
0.000481178
0.000480842
0.000480482
0.000480098
0.000479692
0.000479264
0.000478815
0.000478343
0.000477846
0.000477306
0.000476742
0.000476153
0.000475536
0.000474888
0.000474202
0.00047347
0.000472686
0.000471845
0.000470951
0.000470011
0.000469044
0.000468071
0.00046711
0.000466193
0.000465325
0.000464513
0.000463761
0.000454017
0.000455121
0.000455653
0.000455865
0.000455903
0.000455849
0.000455745
0.000455608
0.000455444
0.000455255
0.000455042
0.000454804
0.000454542
0.000454256
0.000453946
0.000453612
0.000453254
0.000452872
0.000452468
0.000452042
0.000451592
0.00045111
0.000450575
0.000450012
0.000449422
0.000448801
0.000448148
0.000447457
0.000446721
0.000445934
0.000445094
0.000444205
0.000443272
0.000442318
0.00044136
0.000440422
0.000439527
0.000438681
0.000437892
0.000437161
0.000427139
0.000428523
0.000429114
0.000429337
0.00042938
0.000429337
0.000429246
0.000429125
0.000428979
0.000428809
0.000428614
0.000428396
0.000428153
0.000427884
0.000427591
0.000427272
0.000426928
0.000426558
0.000426163
0.000425744
0.000425298
0.000424808
0.000424259
0.000423679
0.000423066
0.000422422
0.000421745
0.000421031
0.000420275
0.000419472
0.00041862
0.000417724
0.000416791
0.000415841
0.000414894
0.000413971
0.000413095
0.000412273
0.000411507
0.000410798
0.000400889
0.000402575
0.000403264
0.000403513
0.000403564
0.000403527
0.000403445
0.000403334
0.0004032
0.000403042
0.000402859
0.000402651
0.000402417
0.000402157
0.000401869
0.000401552
0.000401207
0.000400834
0.000400432
0.000400002
0.000399539
0.00039902
0.000398438
0.000397819
0.000397166
0.00039648
0.000395762
0.000395008
0.000394217
0.000393385
0.000392509
0.000391596
0.000390652
0.000389699
0.000388755
0.00038784
0.000386978
0.000386173
0.000385427
0.000384739
0.000375354
0.000377385
0.000378198
0.000378484
0.000378546
0.000378513
0.000378435
0.000378328
0.000378198
0.000378043
0.000377862
0.000377655
0.000377419
0.000377153
0.000376856
0.000376528
0.000376167
0.000375774
0.000375347
0.000374887
0.000374389
0.000373818
0.000373183
0.000372509
0.000371798
0.000371053
0.000370278
0.000369471
0.000368632
0.000367759
0.000366847
0.000365907
0.000364941
0.000363974
0.000363024
0.000362108
0.000361253
0.000360461
0.000359728
0.000359057
0.000350607
0.000353037
0.000353995
0.000354328
0.000354403
0.000354371
0.00035429
0.000354179
0.000354044
0.000353882
0.000353692
0.000353473
0.000353222
0.000352938
0.000352619
0.000352264
0.000351871
0.000351441
0.000350972
0.000350466
0.000349911
0.000349267
0.000348564
0.000347818
0.000347034
0.000346216
0.000345371
0.000344498
0.000343599
0.000342673
0.000341714
0.000340735
0.000339738
0.000338746
0.00033778
0.000336855
0.000335999
0.000335211
0.000334487
0.000333826
0.000326717
0.00032959
0.000330713
0.000331101
0.000331189
0.000331154
0.000331064
0.000330942
0.000330791
0.000330612
0.000330402
0.000330159
0.00032988
0.000329564
0.000329208
0.000328811
0.000328372
0.00032789
0.000327364
0.000326793
0.000326165
0.00032543
0.000324645
0.000323815
0.000322945
0.000322042
0.000321115
0.000320165
0.000319195
0.000318204
0.000317186
0.000316158
0.000315116
0.000314088
0.000313096
0.000312152
0.000311286
0.000310495
0.000309772
0.000309115
0.000303742
0.000307088
0.000308391
0.00030884
0.000308941
0.0003089
0.000308795
0.000308652
0.000308477
0.00030827
0.000308028
0.000307749
0.000307429
0.000307068
0.000306663
0.000306211
0.000305712
0.000305165
0.000304569
0.000303921
0.000303204
0.000302364
0.000301487
0.000300562
0.000299597
0.000298599
0.000297581
0.000296543
0.00029549
0.000294423
0.000293333
0.000292241
0.000291141
0.000290065
0.000289035
0.000288062
0.000287178
0.000286376
0.000285649
0.000284987
0.000281724
0.000285559
0.000287052
0.000287566
0.00028768
0.000287629
0.000287503
0.000287331
0.000287123
0.000286877
0.000286593
0.000286267
0.000285897
0.000285479
0.000285013
0.000284496
0.000283927
0.000283304
0.000282627
0.00028189
0.000281072
0.000280119
0.000279142
0.000278117
0.00027705
0.00027595
0.000274833
0.000273698
0.00027255
0.000271394
0.000270217
0.000269045
0.000267871
0.000266731
0.000265649
0.000264642
0.000263728
0.000262905
0.000262165
0.00026149
0.000260695
0.000265019
0.000266705
0.000267285
0.000267411
0.000267347
0.000267194
0.000266988
0.000266738
0.000266447
0.000266111
0.000265729
0.000265298
0.000264816
0.00026428
0.000263689
0.000263041
0.000262336
0.00026157
0.000260736
0.00025978
0.000258741
0.000257661
0.000256532
0.00025536
0.000254153
0.00025293
0.000251689
0.000250436
0.000249176
0.000247894
0.000246622
0.000245359
0.00024414
0.000242988
0.000241933
0.000240972
0.000240114
0.000239346
0.000238647
0.000240676
0.000245471
0.000247347
0.000247994
0.000248132
0.000248052
0.000247868
0.000247621
0.000247324
0.000246979
0.000246585
0.000246141
0.000245642
0.000245088
0.000244477
0.000243806
0.000243075
0.000242282
0.000241424
0.00024049
0.0002394
0.000238267
0.000237085
0.000235852
0.000234575
0.000233259
0.000231926
0.000230572
0.000229201
0.000227821
0.000226419
0.000225029
0.000223661
0.000222336
0.000221084
0.000219941
0.000218914
0.000218005
0.000217198
0.000216467
0.000221675
0.000226908
0.000228967
0.00022968
0.000229827
0.00022973
0.000229512
0.000229221
0.000228872
0.000228469
0.000228012
0.0002275
0.00022693
0.0002263
0.00022561
0.000224857
0.000224041
0.00022316
0.000222209
0.000221173
0.000219954
0.000218728
0.000217447
0.000216115
0.000214735
0.00021331
0.000211866
0.000210392
0.000208895
0.000207386
0.000205861
0.000204324
0.000202803
0.000201326
0.000199933
0.000198669
0.000197547
0.000196568
0.000195708
0.000194934
0.000203694
0.00020932
0.000211548
0.000212323
0.00021248
0.000212363
0.00021211
0.000211772
0.000211368
0.000210904
0.000210382
0.000209799
0.000209156
0.000208449
0.000207679
0.000206845
0.000205944
0.000204976
0.000203934
0.000202774
0.00020146
0.000200145
0.000198771
0.000197346
0.000195871
0.000194336
0.000192785
0.000191202
0.000189586
0.000187935
0.000186245
0.000184524
0.000182801
0.00018112
0.000179535
0.000178103
0.00017685
0.000175773
0.000174841
0.000174011
0.000186728
0.000192689
0.000195068
0.000195902
0.000196067
0.000195931
0.000195641
0.000195255
0.000194795
0.00019427
0.00019368
0.000193028
0.000192311
0.000191528
0.00019068
0.000189766
0.000188784
0.000187733
0.000186604
0.000185299
0.000183926
0.000182531
0.000181068
0.000179559
0.000177998
0.000176383
0.000174735
0.000173043
0.000171298
0.000169487
0.000167602
0.00016565
0.000163668
0.000161717
0.000159873
0.000158215
0.000156781
0.00015557
0.00015454
0.000153637
0.000170765
0.000176996
0.000179505
0.00018039
0.000180563
0.000180407
0.000180081
0.000179647
0.000179132
0.000178545
0.00017789
0.000177168
0.00017638
0.000175523
0.0001746
0.00017361
0.000172553
0.000171425
0.000170215
0.000168783
0.000167346
0.000165882
0.000164356
0.000162779
0.000161149
0.000159462
0.000157729
0.000155935
0.000154056
0.000152068
0.000149953
0.000147718
0.000145408
0.000143108
0.000140925
0.000138963
0.000137285
0.000135892
0.000134728
0.000133713
0.000155789
0.000162217
0.000164832
0.000165761
0.00016594
0.000165765
0.000165404
0.000164924
0.000164355
0.000163708
0.000162989
0.000162201
0.000161344
0.000160416
0.000159423
0.000158362
0.000157233
0.000156034
0.000154677
0.000153214
0.000151724
0.000150204
0.000148628
0.000147
0.000145319
0.000143579
0.000141777
0.000139888
0.000137873
0.000135691
0.00013331
0.000130733
0.000128018
0.000125276
0.000122654
0.000120295
0.000118292
0.000116654
0.000115311
0.000114061
0.000141781
0.00014833
0.000151022
0.000151988
0.000152171
0.000151978
0.000151583
0.000151059
0.000150438
0.000149733
0.000148953
0.0001481
0.000147178
0.000146187
0.000145128
0.000144003
0.000142809
0.000141546
0.00014007
0.000138572
0.000137042
0.000135481
0.000133872
0.000132213
0.000130504
0.00012873
0.000126878
0.000124905
0.000122754
0.00012036
0.000117673
0.000114691
0.000111482
0.000108192
0.000105016
0.000102149
9.97233e-05
9.77607e-05
9.61763e-05
9.47616e-05
0.000128713
0.00013531
0.000138052
0.000139044
0.000139229
0.000139018
0.000138591
0.000138024
0.000137353
0.000136594
0.000135756
0.000134843
0.000133861
0.000132808
0.00013169
0.000130506
0.000129255
0.000127849
0.000126358
0.000124832
0.000123276
0.000121692
0.000120068
0.000118402
0.000116687
0.000114904
0.00011302
0.000110976
0.000108689
0.000106065
0.000103032
9.95743e-05
9.57744e-05
9.18164e-05
8.79558e-05
8.44519e-05
8.14864e-05
7.91019e-05
7.7083e-05
7.56186e-05
0.000116558
0.000123132
0.000125895
0.000126902
0.000127086
0.000126858
0.000126399
0.000125793
0.000125074
0.000124263
0.000123369
0.0001224
0.000121361
0.000120252
0.000119079
0.000117841
0.00011652
0.000115017
0.000113507
0.000111965
0.000110398
0.00010881
0.000107193
0.000105543
0.000103847
0.000102078
0.000100183
9.80815e-05
9.56579e-05
9.27847e-05
8.9358e-05
8.53493e-05
8.08522e-05
7.60955e-05
7.14051e-05
6.71186e-05
6.34809e-05
6.05608e-05
5.81307e-05
5.65238e-05
0.000105284
0.000111769
0.000114526
0.000115538
0.000115716
0.000115469
0.000114981
0.000114335
0.000113571
0.00011271
0.000111763
0.000110741
0.000109647
0.000108486
0.00010726
0.000105973
0.000104502
0.000103005
0.000101483
9.99369e-05
9.83753e-05
9.68034e-05
9.52168e-05
9.36075e-05
9.19568e-05
9.02242e-05
8.83394e-05
8.6191e-05
8.36278e-05
8.04805e-05
7.66082e-05
7.19634e-05
6.66526e-05
6.0955e-05
5.5278e-05
5.00509e-05
4.55934e-05
4.19881e-05
3.91353e-05
3.73411e-05
9.48561e-05
0.000101195
0.000103919
0.000104924
0.000105092
0.000104825
0.000104307
0.000103623
0.000102814
0.000101904
0.000100906
9.98312e-05
9.86856e-05
9.74734e-05
9.61986e-05
9.4782e-05
9.32821e-05
9.17726e-05
9.02473e-05
8.87118e-05
8.71742e-05
8.56406e-05
8.41076e-05
8.25638e-05
8.09825e-05
7.93094e-05
7.74512e-05
7.52634e-05
7.25521e-05
6.90989e-05
6.4719e-05
5.93424e-05
5.30896e-05
4.62977e-05
3.94672e-05
3.31323e-05
2.76975e-05
2.31568e-05
1.99352e-05
1.79303e-05
8.52395e-05
9.13809e-05
9.40496e-05
9.50365e-05
9.51889e-05
9.48994e-05
9.43497e-05
9.36262e-05
9.2773e-05
9.1814e-05
9.07652e-05
8.96377e-05
8.844e-05
8.71768e-05
8.58075e-05
8.43005e-05
8.27937e-05
8.12792e-05
7.97633e-05
7.82543e-05
7.67608e-05
7.52882e-05
7.38325e-05
7.23778e-05
7.08881e-05
6.92933e-05
6.74741e-05
6.52483e-05
6.23721e-05
5.85704e-05
5.36079e-05
4.73889e-05
4.00514e-05
3.2e-05
2.38412e-05
1.62261e-05
9.65397e-06
4.17975e-06
4.37211e-07
-1.83961e-06
7.63966e-05
8.22992e-05
8.48912e-05
8.58488e-05
8.59795e-05
8.56637e-05
8.50802e-05
8.43159e-05
8.34164e-05
8.24068e-05
8.13049e-05
8.01232e-05
7.88713e-05
7.75385e-05
7.60224e-05
7.45123e-05
7.29967e-05
7.14874e-05
6.99955e-05
6.85313e-05
6.71028e-05
6.57136e-05
6.43575e-05
6.3013e-05
6.16335e-05
6.0131e-05
5.83571e-05
5.60865e-05
5.30177e-05
4.88109e-05
4.31734e-05
3.59826e-05
2.74001e-05
1.79108e-05
8.24196e-06
-8.28184e-07
-8.71348e-06
-1.51627e-05
-1.94921e-05
-2.21016e-05
6.8289e-05
7.39203e-05
7.64175e-05
7.73353e-05
7.74375e-05
7.70906e-05
7.64696e-05
7.56612e-05
7.47119e-05
7.36482e-05
7.24893e-05
7.12489e-05
6.99378e-05
6.84154e-05
6.68961e-05
6.53702e-05
6.38536e-05
6.23633e-05
6.09128e-05
5.95127e-05
5.81697e-05
5.68848e-05
5.56478e-05
5.44309e-05
5.31755e-05
5.17737e-05
5.0044e-05
4.77116e-05
4.44096e-05
3.97237e-05
3.32976e-05
2.49826e-05
1.49738e-05
3.85327e-06
-7.51345e-06
-1.82114e-05
-2.7704e-05
-3.50406e-05
-3.99831e-05
-4.29882e-05
6.08774e-05
6.62137e-05
6.86012e-05
6.94691e-05
6.95356e-05
6.91519e-05
6.84882e-05
6.76304e-05
6.66261e-05
6.55022e-05
6.42797e-05
6.29732e-05
6.146e-05
5.99198e-05
5.83737e-05
5.68378e-05
5.53332e-05
5.38787e-05
5.24882e-05
5.11714e-05
4.99329e-05
4.877e-05
4.76681e-05
4.65916e-05
4.54689e-05
4.41695e-05
4.24745e-05
4.00527e-05
3.64613e-05
3.12021e-05
2.38492e-05
1.42309e-05
2.59063e-06
-1.03701e-05
-2.36277e-05
-3.61138e-05
-4.71928e-05
-5.55358e-05
-6.11543e-05
-6.46316e-05
5.41224e-05
5.91483e-05
6.14138e-05
6.22226e-05
6.22455e-05
6.1818e-05
6.11048e-05
6.01905e-05
5.91234e-05
5.79309e-05
5.6635e-05
5.51409e-05
5.35669e-05
5.19884e-05
5.04205e-05
4.88871e-05
4.74109e-05
4.60104e-05
4.46986e-05
4.34829e-05
4.23649e-05
4.13381e-05
4.03825e-05
3.94541e-05
3.84671e-05
3.7265e-05
3.55866e-05
3.30355e-05
2.90822e-05
2.31331e-05
1.46879e-05
3.55812e-06
-9.94407e-06
-2.49702e-05
-4.03174e-05
-5.47689e-05
-6.73895e-05
-7.67775e-05
-8.31281e-05
-8.71635e-05
4.79842e-05
5.26914e-05
5.48257e-05
5.55665e-05
5.55375e-05
5.50579e-05
5.42868e-05
5.33067e-05
5.21666e-05
5.08937e-05
4.94291e-05
4.78221e-05
4.62025e-05
4.45895e-05
4.30123e-05
4.14978e-05
4.00683e-05
3.87401e-05
3.75239e-05
3.64242e-05
3.54392e-05
3.45581e-05
3.37552e-05
3.29777e-05
3.21234e-05
3.10071e-05
2.93183e-05
2.65856e-05
2.21802e-05
1.54012e-05
5.66929e-06
-7.20999e-06
-2.28295e-05
-4.01597e-05
-5.77954e-05
-7.45308e-05
-8.84846e-05
-9.88887e-05
-0.000106024
-0.000110711
4.24231e-05
4.68099e-05
4.88056e-05
4.94699e-05
4.93799e-05
4.88387e-05
4.79993e-05
4.69417e-05
4.57159e-05
4.43016e-05
4.26647e-05
4.10038e-05
3.93368e-05
3.77022e-05
3.61331e-05
3.46564e-05
3.32918e-05
3.20529e-05
3.09466e-05
2.99742e-05
2.91303e-05
2.84e-05
2.77517e-05
2.71228e-05
2.63929e-05
2.53441e-05
2.36092e-05
2.06305e-05
1.56649e-05
7.89197e-06
-3.34945e-06
-1.82447e-05
-3.62585e-05
-5.61403e-05
-7.62443e-05
-9.51409e-05
-0.000110502
-0.000121959
-0.000129954
-0.00013539
3.73998e-05
4.1469e-05
4.33204e-05
4.39e-05
4.37392e-05
4.31255e-05
4.22054e-05
4.10563e-05
3.97284e-05
3.80737e-05
3.6376e-05
3.46535e-05
3.29524e-05
3.13149e-05
2.97741e-05
2.83543e-05
2.70718e-05
2.59361e-05
2.49507e-05
2.41131e-05
2.34144e-05
2.28356e-05
2.23393e-05
2.18521e-05
2.12335e-05
2.02276e-05
1.84027e-05
1.51011e-05
9.4502e-06
4.96608e-07
-1.25031e-05
-2.9705e-05
-5.04055e-05
-7.30925e-05
-9.59168e-05
-0.000116763
-0.000133524
-0.000146073
-0.000155013
-0.000161287
3.28754e-05
3.66336e-05
3.83357e-05
3.8822e-05
3.85797e-05
3.78811e-05
3.68663e-05
3.56094e-05
3.40129e-05
3.22987e-05
3.05258e-05
2.87558e-05
2.70409e-05
2.54226e-05
2.3931e-05
2.25864e-05
2.14007e-05
2.03793e-05
1.95218e-05
1.88226e-05
1.82693e-05
1.78391e-05
1.74882e-05
1.71317e-05
1.66064e-05
1.56135e-05
1.36466e-05
9.93443e-06
3.45746e-06
-6.88307e-06
-2.19106e-05
-4.17258e-05
-6.541e-05
-9.11386e-05
-0.000116947
-0.00013947
-0.000157588
-0.000171289
-0.000181266
-0.000188441
2.88129e-05
3.22683e-05
3.38151e-05
3.41987e-05
3.38641e-05
3.30666e-05
3.19414e-05
3.04803e-05
2.87435e-05
2.69347e-05
2.51005e-05
2.33053e-05
2.16009e-05
2.0025e-05
1.86027e-05
1.73493e-05
1.62721e-05
1.53725e-05
1.46467e-05
1.40859e-05
1.36747e-05
1.33865e-05
1.31711e-05
1.29307e-05
1.24768e-05
1.14618e-05
9.29442e-06
5.07449e-06
-2.38137e-06
-1.43289e-05
-3.16656e-05
-5.44052e-05
-8.1364e-05
-0.000110345
-0.000138734
-0.000163108
-0.000182665
-0.000197621
-0.000208726
-0.000216815
2.51749e-05
2.83358e-05
2.97226e-05
2.99932e-05
2.95537e-05
2.86425e-05
2.73897e-05
2.56825e-05
2.38544e-05
2.19683e-05
2.00967e-05
1.83032e-05
1.6635e-05
1.51235e-05
1.37882e-05
1.2639e-05
1.16788e-05
1.09053e-05
1.03115e-05
9.88606e-06
9.61091e-06
9.45545e-06
9.36271e-06
9.22113e-06
8.81339e-06
7.73691e-06
5.30535e-06
4.74242e-07
-8.12013e-06
-2.18996e-05
-4.18253e-05
-6.77869e-05
-9.82905e-05
-0.000130995
-0.000161492
-0.000187639
-0.000208702
-0.000225033
-0.000237315
-0.000246159
2.19249e-05
2.48002e-05
2.6022e-05
2.61684e-05
2.56103e-05
2.45695e-05
2.30383e-05
2.12491e-05
1.93331e-05
1.7396e-05
1.55165e-05
1.37531e-05
1.21456e-05
1.07183e-05
9.48443e-06
8.44882e-06
7.61052e-06
6.96403e-06
6.49991e-06
6.20442e-06
6.0569e-06
6.0229e-06
6.03816e-06
5.97573e-06
5.5865e-06
4.40674e-06
1.64443e-06
-3.9032e-06
-1.37945e-05
-2.96229e-05
-5.23977e-05
-8.18418e-05
-0.000116063
-0.000151907
-0.000184816
-0.000212857
-0.000235565
-0.000253403
-0.000266691
-0.000275836
1.90281e-05
2.16259e-05
2.26769e-05
2.26874e-05
2.19961e-05
2.07839e-05
1.90528e-05
1.71543e-05
1.51747e-05
1.32193e-05
1.13635e-05
9.65748e-06
8.13216e-06
6.80457e-06
5.68213e-06
4.76558e-06
4.05074e-06
3.52958e-06
3.19055e-06
3.0178e-06
2.98817e-06
3.0632e-06
3.17062e-06
3.16661e-06
2.76707e-06
1.44124e-06
-1.71785e-06
-8.08324e-06
-1.94181e-05
-3.74871e-05
-6.33282e-05
-9.64692e-05
-0.000134788
-0.000173289
-0.000208515
-0.000238522
-0.000263042
-0.000282219
-0.000295978
-0.000305877
1.64517e-05
1.8779e-05
1.96526e-05
1.95153e-05
1.86755e-05
1.71938e-05
1.5371e-05
1.33903e-05
1.13802e-05
9.44124e-06
7.63912e-06
6.01357e-06
4.58666e-06
3.36892e-06
2.36323e-06
1.56716e-06
9.74198e-07
5.74399e-07
3.54379e-07
2.96304e-07
3.74395e-07
5.45782e-07
7.29469e-07
7.63127e-07
3.24713e-07
-1.18861e-06
-4.80605e-06
-1.20788e-05
-2.49788e-05
-4.54334e-05
-7.44793e-05
-0.00011141
-0.000153116
-0.000194531
-0.000232155
-0.000264271
-0.000290694
-0.000310219
-0.000325189
-0.000335931
1.41649e-05
1.62272e-05
1.69167e-05
1.66184e-05
1.55903e-05
1.39126e-05
1.19862e-05
9.95631e-06
7.95228e-06
6.06217e-06
4.33839e-06
2.80976e-06
1.49069e-06
3.86837e-07
-5.01871e-07
-1.17981e-06
-1.65501e-06
-1.93893e-06
-2.04664e-06
-1.99809e-06
-1.82198e-06
-1.56613e-06
-1.32117e-06
-1.26947e-06
-1.77355e-06
-3.51199e-06
-7.64035e-06
-1.58901e-05
-3.0437e-05
-5.33544e-05
-8.56466e-05
-0.000126363
-0.000171062
-0.000215209
-0.000255211
-0.000289761
-0.000316735
-0.000337408
-0.000353776
-0.000365405
1.21391e-05
1.39411e-05
1.44388e-05
1.3966e-05
1.26675e-05
1.08918e-05
8.89445e-06
6.85439e-06
4.89129e-06
3.07603e-06
1.44676e-06
2.28283e-08
-1.18673e-06
-2.17891e-06
-2.95504e-06
-3.52026e-06
-3.88352e-06
-4.05762e-06
-4.05946e-06
-3.91144e-06
-3.64572e-06
-3.31574e-06
-3.02274e-06
-2.97049e-06
-3.56383e-06
-5.55882e-06
-1.02373e-05
-1.95055e-05
-3.57266e-05
-6.10901e-05
-9.65916e-05
-0.000140328
-0.000187951
-0.00023463
-0.000276835
-0.000313551
-0.000340812
-0.000363036
-0.000380795
-0.00039344
1.03479e-05
1.18939e-05
1.219e-05
1.1529e-05
1.00083e-05
8.12849e-06
6.09775e-06
4.0856e-06
2.19139e-06
4.66868e-07
-1.06236e-06
-2.38337e-06
-3.48941e-06
-4.37773e-06
-5.04926e-06
-5.50908e-06
-5.76681e-06
-5.83672e-06
-5.738e-06
-5.49608e-06
-5.14727e-06
-4.7514e-06
-4.42129e-06
-4.38321e-06
-5.08517e-06
-7.36009e-06
-1.26111e-05
-2.29051e-05
-4.07627e-05
-6.84289e-05
-0.000106706
-0.000153106
-0.000203247
-0.000252096
-0.000296341
-0.000334037
-0.000362217
-0.000385878
-0.000404895
-0.000418773
8.76717e-06
1.00606e-05
1.01454e-05
9.19883e-06
7.5699e-06
5.62269e-06
3.59916e-06
1.64616e-06
-1.62744e-07
-1.79335e-06
-3.22849e-06
-4.45744e-06
-5.47244e-06
-6.2687e-06
-6.84561e-06
-7.2078e-06
-7.36572e-06
-7.33569e-06
-7.1399e-06
-6.80761e-06
-6.38005e-06
-5.92429e-06
-5.56555e-06
-5.55331e-06
-6.37853e-06
-8.94773e-06
-1.47751e-05
-2.6066e-05
-4.54668e-05
-7.52988e-05
-0.000115675
-0.000164277
-0.000216365
-0.00026678
-0.000312388
-0.000350468
-0.000379663
-0.00040433
-0.000424248
-0.00043944
0.00048982
0.000489178
0.000488588
0.000488039
0.000487524
0.000487047
0.000486634
0.000486304
0.000486067
0.000485917
0.000485917
0.000486067
0.000486304
0.000486634
0.000487047
0.000487524
0.000488039
0.000488588
0.000489178
0.00048982
0.000463071
0.000462446
0.000461873
0.000461332
0.000460823
0.00046035
0.00045994
0.000459612
0.000459377
0.000459229
0.000459229
0.000459377
0.000459612
0.00045994
0.00046035
0.000460823
0.000461332
0.000461873
0.000462446
0.000463071
0.000436491
0.000435886
0.000435333
0.000434817
0.000434319
0.000433857
0.000433456
0.000433138
0.000432908
0.00043276
0.00043276
0.000432908
0.000433138
0.000433456
0.000433857
0.000434319
0.000434817
0.000435333
0.000435886
0.000436491
0.00041015
0.000409566
0.000409034
0.000408547
0.000408073
0.000407626
0.000407241
0.000406936
0.000406717
0.000406574
0.000406574
0.000406717
0.000406936
0.000407241
0.000407626
0.000408073
0.000408547
0.000409034
0.000409566
0.00041015
0.000384113
0.00038355
0.00038304
0.000382572
0.000382137
0.000381709
0.000381342
0.000381053
0.000380847
0.00038071
0.00038071
0.000380847
0.000381053
0.000381342
0.000381709
0.000382137
0.000382572
0.00038304
0.00038355
0.000384113
0.000358449
0.000357906
0.000357416
0.000356967
0.000356565
0.000356155
0.000355805
0.000355532
0.000355338
0.000355205
0.000355205
0.000355338
0.000355532
0.000355805
0.000356155
0.000356565
0.000356967
0.000357416
0.000357906
0.000358449
0.00033323
0.0003327
0.000332225
0.00033179
0.000331393
0.000331013
0.000330675
0.000330413
0.000330228
0.000330098
0.000330098
0.000330228
0.000330413
0.000330675
0.000331013
0.000331393
0.00033179
0.000332225
0.0003327
0.00033323
0.000308524
0.000308001
0.000307532
0.000307102
0.000306706
0.00030633
0.000305996
0.000305739
0.000305557
0.000305427
0.000305427
0.000305557
0.000305739
0.000305996
0.00030633
0.000306706
0.000307102
0.000307532
0.000308001
0.000308524
0.000284392
0.000283866
0.000283395
0.000282957
0.000282549
0.00028215
0.000281811
0.000281549
0.000281364
0.00028123
0.00028123
0.000281364
0.000281549
0.000281811
0.00028215
0.000282549
0.000282957
0.000283395
0.000283866
0.000284392
0.000260881
0.000260343
0.000259856
0.000259399
0.000258946
0.000258514
0.000258156
0.00025788
0.000257684
0.000257541
0.000257541
0.000257684
0.00025788
0.000258156
0.000258514
0.000258946
0.000259399
0.000259856
0.000260343
0.000260881
0.000238017
0.000237458
0.000236947
0.000236456
0.000235912
0.000235451
0.00023506
0.000234758
0.000234544
0.000234388
0.000234388
0.000234544
0.000234758
0.00023506
0.000235451
0.000235912
0.000236456
0.000236947
0.000237458
0.000238017
0.000215808
0.000215221
0.000214676
0.00021406
0.000213489
0.000212978
0.000212541
0.000212202
0.000211962
0.00021179
0.00021179
0.000211962
0.000212202
0.000212541
0.000212978
0.000213489
0.00021406
0.000214676
0.000215221
0.000215808
0.00019424
0.000193618
0.000192937
0.000192297
0.000191672
0.000191096
0.000190601
0.000190215
0.000189942
0.00018975
0.00018975
0.000189942
0.000190215
0.000190601
0.000191096
0.000191672
0.000192297
0.000192937
0.000193618
0.00019424
0.000173273
0.000172509
0.00017182
0.000171136
0.000170442
0.000169788
0.000169221
0.00016878
0.000168468
0.000168254
0.000168254
0.000168468
0.00016878
0.000169221
0.000169788
0.000170442
0.000171136
0.00017182
0.000172509
0.000173273
0.000152761
0.000151984
0.000151271
0.00015053
0.000149755
0.000149012
0.000148364
0.000147859
0.000147505
0.000147267
0.000147267
0.000147505
0.000147859
0.000148364
0.000149012
0.000149755
0.00015053
0.000151271
0.000151984
0.000152761
0.000132734
0.000131958
0.000131215
0.000130411
0.000129547
0.000128703
0.000127966
0.000127392
0.000126993
0.000126731
0.000126731
0.000126993
0.000127392
0.000127966
0.000128703
0.000129547
0.000130411
0.000131215
0.000131958
0.000132734
0.000113112
0.000112333
0.000111559
0.000110687
0.000109727
0.000108775
0.000107941
0.000107295
0.000106849
0.000106565
0.000106565
0.000106849
0.000107295
0.000107941
0.000108775
0.000109727
0.000110687
0.000111559
0.000112333
0.000113112
9.37847e-05
9.29974e-05
9.21911e-05
9.12479e-05
9.01827e-05
8.91156e-05
8.81807e-05
8.74603e-05
8.69674e-05
8.66627e-05
8.66627e-05
8.69674e-05
8.74603e-05
8.81807e-05
8.91156e-05
9.01827e-05
9.12479e-05
9.21911e-05
9.29974e-05
9.37847e-05
7.4619e-05
7.38228e-05
7.29811e-05
7.19594e-05
7.07822e-05
6.95943e-05
6.8555e-05
6.77593e-05
6.7221e-05
6.6898e-05
6.6898e-05
6.7221e-05
6.77593e-05
6.8555e-05
6.95943e-05
7.07822e-05
7.19594e-05
7.29811e-05
7.38228e-05
7.4619e-05
5.54825e-05
5.46689e-05
5.37829e-05
5.26727e-05
5.13756e-05
5.00625e-05
4.89174e-05
4.80468e-05
4.74648e-05
4.71263e-05
4.71263e-05
4.74648e-05
4.80468e-05
4.89174e-05
5.00625e-05
5.13756e-05
5.26727e-05
5.37829e-05
5.46689e-05
5.54825e-05
3.62337e-05
3.53849e-05
3.4438e-05
3.32252e-05
3.17996e-05
3.03584e-05
2.91079e-05
2.81638e-05
2.75401e-05
2.71888e-05
2.71888e-05
2.75401e-05
2.81638e-05
2.91079e-05
3.03584e-05
3.17996e-05
3.32252e-05
3.4438e-05
3.53849e-05
3.62337e-05
1.67265e-05
1.58135e-05
1.47794e-05
1.34453e-05
1.18823e-05
1.03121e-05
8.95845e-06
7.94324e-06
7.27975e-06
6.91815e-06
6.91815e-06
7.27975e-06
7.94324e-06
8.95845e-06
1.03121e-05
1.18823e-05
1.34453e-05
1.47794e-05
1.58135e-05
1.67265e-05
-3.18624e-06
-4.20694e-06
-5.36469e-06
-6.84309e-06
-8.55131e-06
-1.02487e-05
-1.17007e-05
-1.27835e-05
-1.34847e-05
-1.38545e-05
-1.38545e-05
-1.34847e-05
-1.27835e-05
-1.17007e-05
-1.02487e-05
-8.55131e-06
-6.84309e-06
-5.36469e-06
-4.20694e-06
-3.18625e-06
-2.36521e-05
-2.48387e-05
-2.61657e-05
-2.78132e-05
-2.96716e-05
-3.14903e-05
-3.30331e-05
-3.41783e-05
-3.49146e-05
-3.52911e-05
-3.52911e-05
-3.49146e-05
-3.41783e-05
-3.30331e-05
-3.14903e-05
-2.96716e-05
-2.78132e-05
-2.61657e-05
-2.48387e-05
-2.36521e-05
-4.4818e-05
-4.62414e-05
-4.77887e-05
-4.96273e-05
-5.16348e-05
-5.35636e-05
-5.51855e-05
-5.63858e-05
-5.71538e-05
-5.75353e-05
-5.75353e-05
-5.71538e-05
-5.63858e-05
-5.51855e-05
-5.35636e-05
-5.16348e-05
-4.96273e-05
-4.77887e-05
-4.62414e-05
-4.4818e-05
-6.68288e-05
-6.85668e-05
-7.03828e-05
-7.24256e-05
-7.45713e-05
-7.65916e-05
-7.82762e-05
-7.95208e-05
-8.03149e-05
-8.06995e-05
-8.06995e-05
-8.03149e-05
-7.95208e-05
-7.82762e-05
-7.65916e-05
-7.45713e-05
-7.24256e-05
-7.03828e-05
-6.85668e-05
-6.68288e-05
-8.98234e-05
-9.19496e-05
-9.40697e-05
-9.63127e-05
-9.85716e-05
-0.000100656
-0.00010238
-0.000103654
-0.000104465
-0.00010485
-0.00010485
-0.000104465
-0.000103654
-0.00010238
-0.000100656
-9.85716e-05
-9.63127e-05
-9.40697e-05
-9.19496e-05
-8.98234e-05
-0.000113926
-0.000116495
-0.000118928
-0.000121342
-0.000123672
-0.000125781
-0.000127515
-0.000128795
-0.000129611
-0.000129991
-0.000129991
-0.000129611
-0.000128795
-0.000127515
-0.000125781
-0.000123672
-0.000121342
-0.000118928
-0.000116495
-0.000113926
-0.000139231
-0.000142259
-0.000144975
-0.0001475
-0.000149838
-0.000151922
-0.000153626
-0.000154884
-0.000155686
-0.000156056
-0.000156056
-0.000155686
-0.000154884
-0.000153626
-0.000151922
-0.000149838
-0.0001475
-0.000144975
-0.000142259
-0.000139231
-0.000165787
-0.000169233
-0.000172152
-0.000174692
-0.000176957
-0.000178952
-0.000180579
-0.000181782
-0.000182549
-0.000182898
-0.000182898
-0.000182549
-0.000181782
-0.000180579
-0.000178952
-0.000176957
-0.000174692
-0.000172152
-0.000169233
-0.000165787
-0.00019357
-0.000197319
-0.000200284
-0.000202725
-0.000204837
-0.000206671
-0.000208171
-0.000209284
-0.000209988
-0.000210304
-0.000210304
-0.000209988
-0.000209284
-0.000208171
-0.000206671
-0.000204837
-0.000202725
-0.000200284
-0.000197319
-0.00019357
-0.000222411
-0.000226263
-0.000229092
-0.000231344
-0.000233239
-0.00023485
-0.000236161
-0.000237131
-0.00023774
-0.000238005
-0.000238005
-0.00023774
-0.000237131
-0.000236161
-0.00023485
-0.000233239
-0.000231344
-0.000229092
-0.000226263
-0.000222411
-0.000251908
-0.000255738
-0.000258375
-0.000260324
-0.000261886
-0.000263187
-0.000264242
-0.000265022
-0.000265506
-0.000265706
-0.000265706
-0.000265506
-0.000265022
-0.000264242
-0.000263187
-0.000261886
-0.000260324
-0.000258375
-0.000255738
-0.000251908
-0.000281894
-0.000285574
-0.000287834
-0.000289321
-0.000290432
-0.000291344
-0.000292094
-0.000292653
-0.000292995
-0.000293122
-0.000293122
-0.000292995
-0.000292653
-0.000292094
-0.000291344
-0.000290432
-0.000289321
-0.000287834
-0.000285574
-0.000281894
-0.000312149
-0.000315421
-0.000317075
-0.000317945
-0.000318519
-0.000319
-0.000319424
-0.000319757
-0.000319957
-0.000320016
-0.000320016
-0.000319957
-0.000319757
-0.000319424
-0.000319
-0.000318519
-0.000317945
-0.000317075
-0.000315421
-0.000312149
-0.000342288
-0.000344833
-0.000345662
-0.000345811
-0.000345819
-0.000345881
-0.000346007
-0.000346139
-0.000346219
-0.000346222
-0.000346222
-0.000346219
-0.000346139
-0.000346007
-0.000345881
-0.000345819
-0.000345811
-0.000345662
-0.000344833
-0.000342288
-0.000371824
-0.000373303
-0.000373147
-0.000372565
-0.000372072
-0.000371798
-0.0003717
-0.000371689
-0.000371688
-0.000371658
-0.000371658
-0.000371688
-0.000371689
-0.0003717
-0.000371798
-0.000372072
-0.000372565
-0.000373147
-0.000373303
-0.000371824
-0.000400161
-0.000400244
-0.000399088
-0.000397921
-0.000397106
-0.000396654
-0.000396454
-0.000396385
-0.000396355
-0.000396317
-0.000396317
-0.000396355
-0.000396385
-0.000396454
-0.000396654
-0.000397106
-0.000397921
-0.000399088
-0.000400244
-0.000400161
-0.00042644
-0.00042495
-0.000423083
-0.000421696
-0.000420864
-0.000420455
-0.000420305
-0.000420279
-0.000420281
-0.000420267
-0.000420267
-0.000420281
-0.000420279
-0.000420305
-0.000420455
-0.000420864
-0.000421696
-0.000423083
-0.00042495
-0.00042644
-0.000449133
-0.000446636
-0.000444889
-0.000443887
-0.000443418
-0.000443292
-0.00044335
-0.000443468
-0.000443564
-0.000443606
-0.000443606
-0.000443564
-0.000443468
-0.00044335
-0.000443292
-0.000443418
-0.000443887
-0.000444889
-0.000446636
-0.000449133
0.000490528
0.0004913
0.000492133
0.000493022
0.000493962
0.000494943
0.000495936
0.000496923
0.000497879
0.000498788
0.000499643
0.00050044
0.000501185