/*--------------------------------*- C++ -*----------------------------------*\
  =========                 |
  \\      /  F ield         | OpenFOAM: The Open Source CFD Toolbox
   \\    /   O peration     | Website:  https://openfoam.org
    \\  /    A nd           | Version:  6
     \\/     M anipulation  |
\*---------------------------------------------------------------------------*/
FoamFile
{
    version     2.0;
    format      ascii;
    class       volVectorField;
    location    "40";
    object      force;
}
// * * * * * * * * * * * * * * * * * * * * * * * * * * * * * * * * * * * * * //

dimensions      [0 1 -2 0 0 0 0];

internalField   nonuniform List<vector> 
8800
(
(-3.15732e-06 -0.0477883 -0)
(-8.66861e-06 -0.0479102 -0)
(-1.31784e-05 -0.0479775 -0)
(-1.74672e-05 -0.0480245 -0)
(-2.17141e-05 -0.0480639 -0)
(-2.59542e-05 -0.0481028 -0)
(-3.01754e-05 -0.0481452 -0)
(-3.43532e-05 -0.0481929 -0)
(-3.84638e-05 -0.0482463 -0)
(-4.24895e-05 -0.0483052 -0)
(-4.6415e-05 -0.0483696 -0)
(-5.02262e-05 -0.0484392 -0)
(-5.39092e-05 -0.0485138 -0)
(-5.74497e-05 -0.0485931 -0)
(-6.08334e-05 -0.0486768 -0)
(-6.40452e-05 -0.0487648 -0)
(-6.70698e-05 -0.0488566 -0)
(-6.98915e-05 -0.0489519 -0)
(-7.24934e-05 -0.0490504 -0)
(-7.48574e-05 -0.0491517 -0)
(-7.69651e-05 -0.0492553 -0)
(-7.88005e-05 -0.0493602 -0)
(-8.03574e-05 -0.0494652 -0)
(-8.16283e-05 -0.0495709 -0)
(-8.25938e-05 -0.0496764 -0)
(-8.32354e-05 -0.0497808 -0)
(-8.35354e-05 -0.0498831 -0)
(-8.34797e-05 -0.0499818 -0)
(-8.30596e-05 -0.0500754 -0)
(-8.22732e-05 -0.0501623 -0)
(-8.11279e-05 -0.0502413 -0)
(-7.96364e-05 -0.050312 -0)
(-7.78142e-05 -0.0503743 -0)
(-7.56785e-05 -0.0504293 -0)
(-7.3238e-05 -0.0504788 -0)
(-7.04955e-05 -0.050524 -0)
(-6.74462e-05 -0.0505674 -0)
(-6.4076e-05 -0.0506092 -0)
(-6.03796e-05 -0.0506494 -0)
(-5.63578e-05 -0.0506878 -0)
(-8.14346e-06 -0.0438502 -0)
(-2.3283e-05 -0.0439485 -0)
(-3.66978e-05 -0.0440172 -0)
(-4.93615e-05 -0.0440628 -0)
(-6.17496e-05 -0.0441008 -0)
(-7.40021e-05 -0.0441394 -0)
(-8.61274e-05 -0.0441819 -0)
(-9.80922e-05 -0.0442294 -0)
(-0.000109854 -0.0442823 -0)
(-0.00012137 -0.0443406 -0)
(-0.000132601 -0.0444042 -0)
(-0.000143506 -0.0444729 -0)
(-0.000154048 -0.0445465 -0)
(-0.000164184 -0.0446247 -0)
(-0.000173875 -0.0447073 -0)
(-0.000183077 -0.044794 -0)
(-0.000191747 -0.0448844 -0)
(-0.000199838 -0.0449783 -0)
(-0.000207304 -0.0450753 -0)
(-0.000214095 -0.0451751 -0)
(-0.00022016 -0.0452769 -0)
(-0.000225454 -0.04538 -0)
(-0.00022995 -0.0454824 -0)
(-0.00023363 -0.0455849 -0)
(-0.000236444 -0.0456872 -0)
(-0.000238345 -0.0457883 -0)
(-0.000239286 -0.0458872 -0)
(-0.000239231 -0.0459826 -0)
(-0.000238155 -0.0460731 -0)
(-0.000236046 -0.0461573 -0)
(-0.000232914 -0.046234 -0)
(-0.000228783 -0.046303 -0)
(-0.000223683 -0.046364 -0)
(-0.000217647 -0.0464185 -0)
(-0.000210695 -0.0464676 -0)
(-0.000202834 -0.0465129 -0)
(-0.00019406 -0.0465565 -0)
(-0.00018435 -0.0465985 -0)
(-0.000173698 -0.046639 -0)
(-0.000162111 -0.0466777 -0)
(-1.24303e-05 -0.0401405 -0)
(-3.59189e-05 -0.0402476 -0)
(-5.72676e-05 -0.0403131 -0)
(-7.75722e-05 -0.0403589 -0)
(-9.73763e-05 -0.0403974 -0)
(-0.000116888 -0.0404359 -0)
(-0.000136148 -0.0404779 -0)
(-0.000155127 -0.0405247 -0)
(-0.000173772 -0.0405769 -0)
(-0.000192024 -0.0406343 -0)
(-0.000209826 -0.0406968 -0)
(-0.000227115 -0.0407643 -0)
(-0.000243832 -0.0408365 -0)
(-0.000259913 -0.0409132 -0)
(-0.000275291 -0.0409941 -0)
(-0.0002899 -0.0410788 -0)
(-0.00030367 -0.0411671 -0)
(-0.000316528 -0.0412587 -0)
(-0.0003284 -0.0413532 -0)
(-0.000339209 -0.0414503 -0)
(-0.000348876 -0.0415493 -0)
(-0.000357328 -0.041649 -0)
(-0.000364514 -0.0417468 -0)
(-0.000370413 -0.0418448 -0)
(-0.000374947 -0.0419422 -0)
(-0.000378047 -0.0420382 -0)
(-0.000379646 -0.0421322 -0)
(-0.000379685 -0.0422227 -0)
(-0.000378123 -0.0423087 -0)
(-0.00037494 -0.0423889 -0)
(-0.000370137 -0.0424622 -0)
(-0.000363741 -0.0425285 -0)
(-0.000355784 -0.0425875 -0)
(-0.000346308 -0.0426407 -0)
(-0.000335338 -0.0426893 -0)
(-0.000322885 -0.0427346 -0)
(-0.000308946 -0.0427785 -0)
(-0.000293499 -0.042821 -0)
(-0.000276544 -0.042862 -0)
(-0.0002581 -0.0429013 -0)
(-1.62019e-05 -0.0366715 -0)
(-4.70192e-05 -0.0367995 -0)
(-7.53229e-05 -0.0368677 -0)
(-0.000102391 -0.0369124 -0)
(-0.000128808 -0.0369495 -0)
(-0.000154804 -0.0369869 -0)
(-0.000180433 -0.0370279 -0)
(-0.000205669 -0.0370737 -0)
(-0.000230452 -0.0371247 -0)
(-0.000254713 -0.0371808 -0)
(-0.000278376 -0.0372418 -0)
(-0.000301366 -0.0373075 -0)
(-0.000323601 -0.0373777 -0)
(-0.000344997 -0.0374521 -0)
(-0.000365468 -0.0375304 -0)
(-0.000384923 -0.0376124 -0)
(-0.000403269 -0.0376976 -0)
(-0.000420411 -0.0377858 -0)
(-0.000436249 -0.0378766 -0)
(-0.000450681 -0.0379697 -0)
(-0.000463603 -0.0380643 -0)
(-0.000474916 -0.0381586 -0)
(-0.000484551 -0.0382507 -0)
(-0.000492478 -0.0383424 -0)
(-0.000498601 -0.0384334 -0)
(-0.000502832 -0.0385229 -0)
(-0.000505086 -0.0386104 -0)
(-0.000505288 -0.0386948 -0)
(-0.00050338 -0.0387751 -0)
(-0.00049933 -0.0388502 -0)
(-0.00049313 -0.0389191 -0)
(-0.0004848 -0.0389818 -0)
(-0.000474371 -0.0390382 -0)
(-0.000461888 -0.0390895 -0)
(-0.000447376 -0.0391369 -0)
(-0.000430851 -0.0391817 -0)
(-0.000412312 -0.0392256 -0)
(-0.000391743 -0.0392685 -0)
(-0.000369145 -0.0393102 -0)
(-0.000344554 -0.03935 -0)
(-1.94984e-05 -0.0334441 -0)
(-5.67324e-05 -0.0335935 -0)
(-9.11093e-05 -0.0336677 -0)
(-0.000124086 -0.0337127 -0)
(-0.000156301 -0.0337488 -0)
(-0.000188 -0.0337848 -0)
(-0.00021924 -0.0338244 -0)
(-0.000249992 -0.0338687 -0)
(-0.000280191 -0.033918 -0)
(-0.000309757 -0.0339721 -0)
(-0.000338603 -0.034031 -0)
(-0.000366635 -0.0340943 -0)
(-0.000393757 -0.0341617 -0)
(-0.000419867 -0.034233 -0)
(-0.000444859 -0.0343079 -0)
(-0.000468621 -0.034386 -0)
(-0.00049104 -0.034467 -0)
(-0.000511999 -0.0345506 -0)
(-0.000531376 -0.0346364 -0)
(-0.000549047 -0.0347241 -0)
(-0.000564886 -0.0348129 -0)
(-0.000578763 -0.0349003 -0)
(-0.000590605 -0.034985 -0)
(-0.000600367 -0.0350692 -0)
(-0.000607939 -0.0351524 -0)
(-0.000613218 -0.0352341 -0)
(-0.000616104 -0.035314 -0)
(-0.000616509 -0.0353911 -0)
(-0.000614362 -0.0354647 -0)
(-0.000609616 -0.0355338 -0)
(-0.000602249 -0.0355975 -0)
(-0.00059228 -0.0356559 -0)
(-0.000579727 -0.0357087 -0)
(-0.000564638 -0.0357573 -0)
(-0.00054704 -0.0358029 -0)
(-0.000526946 -0.0358465 -0)
(-0.000504364 -0.0358898 -0)
(-0.000479276 -0.0359327 -0)
(-0.000451691 -0.0359746 -0)
(-0.000421656 -0.0360149 -0)
(-2.23576e-05 -0.030449 -0)
(-6.51685e-05 -0.0306221 -0)
(-0.000104797 -0.030704 -0)
(-0.000142874 -0.0307504 -0)
(-0.000180101 -0.0307857 -0)
(-0.000216744 -0.0308202 -0)
(-0.000252858 -0.030858 -0)
(-0.000288412 -0.0309003 -0)
(-0.000323333 -0.0309473 -0)
(-0.00035753 -0.0309989 -0)
(-0.000390906 -0.0310549 -0)
(-0.000423353 -0.0311149 -0)
(-0.000454759 -0.0311787 -0)
(-0.000485006 -0.031246 -0)
(-0.000513971 -0.0313164 -0)
(-0.000541523 -0.0313897 -0)
(-0.00056753 -0.0314654 -0)
(-0.000591854 -0.0315432 -0)
(-0.000614356 -0.0316228 -0)
(-0.000634892 -0.0317038 -0)
(-0.000653311 -0.0317854 -0)
(-0.000669455 -0.0318642 -0)
(-0.000683258 -0.0319405 -0)
(-0.000694654 -0.032016 -0)
(-0.000703521 -0.0320903 -0)
(-0.000709745 -0.0321632 -0)
(-0.000713219 -0.0322345 -0)
(-0.000713839 -0.0323035 -0)
(-0.000711524 -0.0323696 -0)
(-0.000706215 -0.0324319 -0)
(-0.000697877 -0.0324896 -0)
(-0.000686521 -0.0325428 -0)
(-0.000672156 -0.0325913 -0)
(-0.000654833 -0.0326364 -0)
(-0.000634574 -0.0326793 -0)
(-0.000611394 -0.032721 -0)
(-0.000585306 -0.0327631 -0)
(-0.000556291 -0.0328054 -0)
(-0.000524359 -0.0328469 -0)
(-0.000489569 -0.0328873 -0)
(-2.48055e-05 -0.0276758 -0)
(-7.24101e-05 -0.0278756 -0)
(-0.000116526 -0.0279664 -0)
(-0.000158948 -0.0280148 -0)
(-0.000200448 -0.0280495 -0)
(-0.000241312 -0.0280824 -0)
(-0.000281598 -0.0281179 -0)
(-0.000321272 -0.0281577 -0)
(-0.000360252 -0.0282018 -0)
(-0.00039844 -0.0282502 -0)
(-0.000435725 -0.0283025 -0)
(-0.000471988 -0.0283584 -0)
(-0.000507102 -0.0284178 -0)
(-0.000540936 -0.0284801 -0)
(-0.000573348 -0.0285451 -0)
(-0.000604193 -0.0286125 -0)
(-0.00063332 -0.0286818 -0)
(-0.000660574 -0.0287528 -0)
(-0.000685798 -0.0288251 -0)
(-0.000708829 -0.0288984 -0)
(-0.000729496 -0.0289715 -0)
(-0.000747602 -0.0290404 -0)
(-0.000763115 -0.0291074 -0)
(-0.000775934 -0.0291732 -0)
(-0.000785929 -0.0292379 -0)
(-0.000792977 -0.0293012 -0)
(-0.000796966 -0.0293632 -0)
(-0.000797783 -0.0294233 -0)
(-0.000795339 -0.0294811 -0)
(-0.000789564 -0.029536 -0)
(-0.000780408 -0.0295868 -0)
(-0.000767882 -0.0296342 -0)
(-0.000751981 -0.0296774 -0)
(-0.000732759 -0.0297182 -0)
(-0.000710239 -0.0297577 -0)
(-0.000684429 -0.0297966 -0)
(-0.000655352 -0.0298367 -0)
(-0.000622979 -0.0298776 -0)
(-0.000587323 -0.0299183 -0)
(-0.000548447 -0.0299581 -0)
(-2.68582e-05 -0.025114 -0)
(-7.85191e-05 -0.0253425 -0)
(-0.000126415 -0.0254433 -0)
(-0.000172486 -0.0254942 -0)
(-0.000217571 -0.0255283 -0)
(-0.000261981 -0.0255593 -0)
(-0.00030578 -0.0255923 -0)
(-0.00034893 -0.0256289 -0)
(-0.000391345 -0.0256695 -0)
(-0.000432915 -0.0257139 -0)
(-0.00047352 -0.0257618 -0)
(-0.00051303 -0.025813 -0)
(-0.000551305 -0.025867 -0)
(-0.000588199 -0.0259235 -0)
(-0.000623557 -0.0259823 -0)
(-0.000657218 -0.0260429 -0)
(-0.000689015 -0.026105 -0)
(-0.000718776 -0.0261683 -0)
(-0.000746328 -0.0262325 -0)
(-0.000771492 -0.026297 -0)
(-0.000794072 -0.0263605 -0)
(-0.000813833 -0.0264186 -0)
(-0.000830799 -0.0264756 -0)
(-0.000844821 -0.0265313 -0)
(-0.000855759 -0.0265856 -0)
(-0.000863488 -0.0266387 -0)
(-0.000867896 -0.0266908 -0)
(-0.000868862 -0.0267415 -0)
(-0.000866292 -0.0267905 -0)
(-0.000860109 -0.0268371 -0)
(-0.00085025 -0.0268804 -0)
(-0.000836729 -0.026921 -0)
(-0.000819528 -0.0269581 -0)
(-0.000798708 -0.0269937 -0)
(-0.000774293 -0.0270287 -0)
(-0.000746283 -0.027064 -0)
(-0.000714708 -0.0271015 -0)
(-0.000679529 -0.0271403 -0)
(-0.000640749 -0.0271794 -0)
(-0.000598437 -0.0272179 -0)
(-2.85284e-05 -0.0227527 -0)
(-8.35479e-05 -0.0230106 -0)
(-0.000134574 -0.0231221 -0)
(-0.000183655 -0.0231757 -0)
(-0.000231692 -0.0232093 -0)
(-0.000279023 -0.0232382 -0)
(-0.000325722 -0.0232683 -0)
(-0.000371748 -0.0233014 -0)
(-0.000417009 -0.0233378 -0)
(-0.000461389 -0.0233777 -0)
(-0.000504759 -0.0234205 -0)
(-0.000546977 -0.0234661 -0)
(-0.000587892 -0.0235141 -0)
(-0.000627346 -0.0235641 -0)
(-0.00066517 -0.0236159 -0)
(-0.000701189 -0.0236691 -0)
(-0.000735221 -0.0237233 -0)
(-0.000767081 -0.0237783 -0)
(-0.000796578 -0.0238336 -0)
(-0.000823518 -0.0238887 -0)
(-0.000847681 -0.023942 -0)
(-0.000868788 -0.0239886 -0)
(-0.000886943 -0.0240351 -0)
(-0.000901935 -0.0240802 -0)
(-0.000913619 -0.024124 -0)
(-0.000921868 -0.0241665 -0)
(-0.000926573 -0.0242084 -0)
(-0.000927608 -0.0242491 -0)
(-0.000924878 -0.0242885 -0)
(-0.000918306 -0.0243262 -0)
(-0.000907813 -0.024361 -0)
(-0.000893429 -0.0243938 -0)
(-0.000875119 -0.0244238 -0)
(-0.000852962 -0.024453 -0)
(-0.000826982 -0.0244828 -0)
(-0.000797173 -0.0245136 -0)
(-0.000763566 -0.0245475 -0)
(-0.000726107 -0.0245836 -0)
(-0.000684791 -0.0246205 -0)
(-0.000639669 -0.024657 -0)
(-2.98288e-05 -0.0205805 -0)
(-8.75462e-05 -0.0208676 -0)
(-0.000141105 -0.0209898 -0)
(-0.000192613 -0.0210463 -0)
(-0.000243026 -0.0210793 -0)
(-0.000292705 -0.021106 -0)
(-0.000341735 -0.0211328 -0)
(-0.000390078 -0.0211619 -0)
(-0.000437639 -0.0211938 -0)
(-0.000484293 -0.0212285 -0)
(-0.000529904 -0.0212658 -0)
(-0.000574321 -0.0213053 -0)
(-0.000617383 -0.0213467 -0)
(-0.00065892 -0.0213897 -0)
(-0.000698751 -0.021434 -0)
(-0.00073669 -0.0214792 -0)
(-0.000772541 -0.0215251 -0)
(-0.000806104 -0.0215712 -0)
(-0.000837175 -0.0216172 -0)
(-0.000865542 -0.0216625 -0)
(-0.000890952 -0.0217049 -0)
(-0.000913105 -0.0217401 -0)
(-0.000932182 -0.021776 -0)
(-0.000947907 -0.0218104 -0)
(-0.000960128 -0.0218434 -0)
(-0.000968716 -0.0218752 -0)
(-0.000973573 -0.0219065 -0)
(-0.000974566 -0.0219368 -0)
(-0.000971605 -0.021966 -0)
(-0.000964616 -0.021994 -0)
(-0.000953507 -0.0220191 -0)
(-0.000938337 -0.022043 -0)
(-0.00091906 -0.0220645 -0)
(-0.000895778 -0.0220862 -0)
(-0.000868523 -0.0221094 -0)
(-0.000837296 -0.0221352 -0)
(-0.000802091 -0.0221646 -0)
(-0.000762854 -0.0221969 -0)
(-0.000719562 -0.0222309 -0)
(-0.000672239 -0.0222646 -0)
(-3.07745e-05 -0.018586 -0)
(-9.05653e-05 -0.0189007 -0)
(-0.000146107 -0.0190333 -0)
(-0.000199514 -0.0190927 -0)
(-0.000251775 -0.0191251 -0)
(-0.000303278 -0.0191494 -0)
(-0.000354119 -0.0191727 -0)
(-0.000404263 -0.0191975 -0)
(-0.000453613 -0.0192245 -0)
(-0.000502041 -0.0192537 -0)
(-0.000549402 -0.0192849 -0)
(-0.000595539 -0.019318 -0)
(-0.000640281 -0.0193524 -0)
(-0.000683447 -0.019388 -0)
(-0.00072485 -0.0194245 -0)
(-0.000764289 -0.0194615 -0)
(-0.000801558 -0.0194987 -0)
(-0.000836444 -0.0195359 -0)
(-0.000868727 -0.0195724 -0)
(-0.00089817 -0.0196076 -0)
(-0.000924409 -0.0196368 -0)
(-0.000947418 -0.0196628 -0)
(-0.000967148 -0.0196883 -0)
(-0.000983365 -0.0197122 -0)
(-0.000995907 -0.0197345 -0)
(-0.00100464 -0.0197554 -0)
(-0.00100948 -0.0197759 -0)
(-0.0010103 -0.0197954 -0)
(-0.00100699 -0.0198138 -0)
(-0.00099951 -0.0198309 -0)
(-0.000987746 -0.0198452 -0)
(-0.000971803 -0.0198586 -0)
(-0.000951654 -0.0198706 -0)
(-0.000927411 -0.0198834 -0)
(-0.000899116 -0.0198987 -0)
(-0.000866802 -0.0199182 -0)
(-0.000830383 -0.0199416 -0)
(-0.000789828 -0.0199688 -0)
(-0.000745086 -0.0199984 -0)
(-0.000696155 -0.0200282 -0)
(-3.13832e-05 -0.0167575 -0)
(-9.2659e-05 -0.0170975 -0)
(-0.00014968 -0.0172398 -0)
(-0.000204502 -0.0173019 -0)
(-0.000258134 -0.0173337 -0)
(-0.000310982 -0.0173555 -0)
(-0.000363156 -0.0173751 -0)
(-0.000414625 -0.0173954 -0)
(-0.000465291 -0.0174172 -0)
(-0.000515025 -0.0174407 -0)
(-0.000563677 -0.0174657 -0)
(-0.000611082 -0.017492 -0)
(-0.000657063 -0.0175194 -0)
(-0.000701431 -0.0175474 -0)
(-0.00074399 -0.0175759 -0)
(-0.000784529 -0.0176046 -0)
(-0.000822834 -0.0176332 -0)
(-0.000858677 -0.0176613 -0)
(-0.000891826 -0.0176885 -0)
(-0.000922018 -0.0177136 -0)
(-0.000948775 -0.0177304 -0)
(-0.00097234 -0.0177469 -0)
(-0.000992466 -0.0177623 -0)
(-0.00100894 -0.0177759 -0)
(-0.00102158 -0.0177879 -0)
(-0.00103026 -0.0177981 -0)
(-0.00103491 -0.0178077 -0)
(-0.00103537 -0.017816 -0)
(-0.00103157 -0.0178227 -0)
(-0.00102347 -0.0178281 -0)
(-0.00101097 -0.0178304 -0)
(-0.000994213 -0.0178319 -0)
(-0.000973235 -0.0178331 -0)
(-0.000948098 -0.017835 -0)
(-0.000918888 -0.0178397 -0)
(-0.000885678 -0.0178497 -0)
(-0.00084839 -0.0178652 -0)
(-0.000806956 -0.0178859 -0)
(-0.000761282 -0.0179101 -0)
(-0.000711327 -0.0179352 -0)
(-3.16761e-05 -0.015084 -0)
(-9.38852e-05 -0.0154458 -0)
(-0.00015192 -0.0155969 -0)
(-0.000207719 -0.0156615 -0)
(-0.000262286 -0.0156926 -0)
(-0.000316042 -0.0157118 -0)
(-0.00036911 -0.0157277 -0)
(-0.000421465 -0.0157434 -0)
(-0.000473011 -0.01576 -0)
(-0.000523616 -0.0157776 -0)
(-0.000573127 -0.0157963 -0)
(-0.000621376 -0.0158158 -0)
(-0.00066818 -0.015836 -0)
(-0.000713344 -0.0158564 -0)
(-0.000756664 -0.015877 -0)
(-0.000797925 -0.0158975 -0)
(-0.000836899 -0.0159176 -0)
(-0.000873353 -0.0159369 -0)
(-0.000907037 -0.0159549 -0)
(-0.000937663 -0.0159702 -0)
(-0.00096463 -0.0159754 -0)
(-0.000988474 -0.0159827 -0)
(-0.00100874 -0.0159884 -0)
(-0.00102524 -0.0159924 -0)
(-0.00103778 -0.0159943 -0)
(-0.00104619 -0.015994 -0)
(-0.00105046 -0.0159929 -0)
(-0.00105038 -0.0159897 -0)
(-0.00104591 -0.0159843 -0)
(-0.00103704 -0.0159772 -0)
(-0.00102373 -0.0159675 -0)
(-0.00100601 -0.0159551 -0)
(-0.00098402 -0.0159416 -0)
(-0.0009579 -0.0159288 -0)
(-0.000927799 -0.0159196 -0)
(-0.000893836 -0.0159173 -0)
(-0.00085595 -0.0159225 -0)
(-0.000814029 -0.0159349 -0)
(-0.000767913 -0.0159524 -0)
(-0.000717508 -0.0159716 -0)
(-3.16772e-05 -0.0135546 -0)
(-9.43051e-05 -0.0139343 -0)
(-0.000152925 -0.0140929 -0)
(-0.000209299 -0.0141596 -0)
(-0.000264402 -0.0141899 -0)
(-0.000318668 -0.0142066 -0)
(-0.000372228 -0.0142188 -0)
(-0.000425064 -0.0142299 -0)
(-0.000477083 -0.0142412 -0)
(-0.000528154 -0.0142531 -0)
(-0.000578123 -0.0142654 -0)
(-0.000626818 -0.0142782 -0)
(-0.000674053 -0.0142913 -0)
(-0.000719628 -0.0143043 -0)
(-0.000763337 -0.0143172 -0)
(-0.000804957 -0.0143297 -0)
(-0.000844254 -0.0143416 -0)
(-0.000880986 -0.0143524 -0)
(-0.000914884 -0.0143616 -0)
(-0.000945527 -0.0143658 -0)
(-0.000972539 -0.014362 -0)
(-0.000996397 -0.0143606 -0)
(-0.00101657 -0.0143573 -0)
(-0.00103287 -0.0143522 -0)
(-0.0010451 -0.0143448 -0)
(-0.00105303 -0.014334 -0)
(-0.00105674 -0.0143225 -0)
(-0.001056 -0.0143087 -0)
(-0.00105073 -0.0142919 -0)
(-0.00104088 -0.0142715 -0)
(-0.00102643 -0.0142466 -0)
(-0.00100746 -0.0142173 -0)
(-0.00098419 -0.0141855 -0)
(-0.00095686 -0.014154 -0)
(-0.000925741 -0.0141268 -0)
(-0.000891034 -0.0141083 -0)
(-0.000852716 -0.0141 -0)
(-0.000810632 -0.0141017 -0)
(-0.000764531 -0.0141105 -0)
(-0.000714236 -0.0141226 -0)
(-3.14126e-05 -0.0121589 -0)
(-9.3983e-05 -0.012552 -0)
(-0.000152791 -0.0127166 -0)
(-0.000209369 -0.0127851 -0)
(-0.000264646 -0.0128146 -0)
(-0.000319055 -0.0128288 -0)
(-0.000372736 -0.0128373 -0)
(-0.000425679 -0.012844 -0)
(-0.000477796 -0.0128501 -0)
(-0.000528955 -0.0128563 -0)
(-0.000579005 -0.0128625 -0)
(-0.000627773 -0.0128688 -0)
(-0.00067507 -0.0128749 -0)
(-0.000720694 -0.0128808 -0)
(-0.000764438 -0.0128863 -0)
(-0.000806074 -0.0128912 -0)
(-0.000845364 -0.0128952 -0)
(-0.000882059 -0.0128981 -0)
(-0.000915869 -0.012899 -0)
(-0.000946084 -0.0128907 -0)
(-0.000973021 -0.0128805 -0)
(-0.000996653 -0.0128713 -0)
(-0.00101648 -0.0128593 -0)
(-0.00103238 -0.0128458 -0)
(-0.00104413 -0.0128299 -0)
(-0.00105152 -0.0128109 -0)
(-0.00105451 -0.0127899 -0)
(-0.00105291 -0.0127656 -0)
(-0.0010466 -0.0127366 -0)
(-0.00103549 -0.0127017 -0)
(-0.00101955 -0.0126594 -0)
(-0.000998914 -0.0126098 -0)
(-0.000973898 -0.0125552 -0)
(-0.00094493 -0.0124999 -0)
(-0.000912461 -0.0124494 -0)
(-0.000876838 -0.0124098 -0)
(-0.000838116 -0.0123839 -0)
(-0.000796097 -0.0123716 -0)
(-0.000750411 -0.0123692 -0)
(-0.000700768 -0.0123722 -0)
(-3.09103e-05 -0.0108872 -0)
(-9.29854e-05 -0.0112889 -0)
(-0.000151613 -0.0114579 -0)
(-0.000208053 -0.0115277 -0)
(-0.000263169 -0.0115563 -0)
(-0.000317385 -0.0115681 -0)
(-0.000370847 -0.0115731 -0)
(-0.000423551 -0.0115755 -0)
(-0.000475415 -0.0115767 -0)
(-0.000526312 -0.0115773 -0)
(-0.00057609 -0.0115776 -0)
(-0.000624578 -0.0115776 -0)
(-0.00067159 -0.0115772 -0)
(-0.000716919 -0.0115762 -0)
(-0.000760362 -0.0115747 -0)
(-0.000801688 -0.0115724 -0)
(-0.000840658 -0.0115692 -0)
(-0.000877016 -0.0115646 -0)
(-0.000910451 -0.0115576 -0)
(-0.000939977 -0.0115385 -0)
(-0.000966527 -0.0115216 -0)
(-0.000989707 -0.0115051 -0)
(-0.00100907 -0.0114864 -0)
(-0.00102442 -0.0114657 -0)
(-0.00103555 -0.0114424 -0)
(-0.00104223 -0.0114158 -0)
(-0.00104438 -0.0113862 -0)
(-0.00104176 -0.0113518 -0)
(-0.00103417 -0.0113104 -0)
(-0.00102145 -0.0112597 -0)
(-0.00100356 -0.0111975 -0)
(-0.000980666 -0.0111237 -0)
(-0.000953239 -0.0110412 -0)
(-0.000921951 -0.010956 -0)
(-0.000887539 -0.0108759 -0)
(-0.000850587 -0.0108089 -0)
(-0.000811292 -0.01076 -0)
(-0.00076943 -0.0107293 -0)
(-0.000724486 -0.0107125 -0)
(-0.000675952 -0.0107027 -0)
(-3.01992e-05 -0.00973005 -0)
(-9.13801e-05 -0.0101357 -0)
(-0.000149485 -0.0103074 -0)
(-0.000205472 -0.0103779 -0)
(-0.000260117 -0.0104056 -0)
(-0.000313828 -0.0104151 -0)
(-0.000366756 -0.0104168 -0)
(-0.000418902 -0.010415 -0)
(-0.000470188 -0.0104114 -0)
(-0.000520493 -0.0104068 -0)
(-0.000569669 -0.0104015 -0)
(-0.000617547 -0.0103955 -0)
(-0.000663943 -0.0103889 -0)
(-0.000708647 -0.0103814 -0)
(-0.000751466 -0.0103733 -0)
(-0.000792167 -0.0103643 -0)
(-0.000830508 -0.0103541 -0)
(-0.000866228 -0.0103425 -0)
(-0.000898596 -0.0103234 -0)
(-0.000927643 -0.0103 -0)
(-0.000953576 -0.0102771 -0)
(-0.000976108 -0.0102544 -0)
(-0.000994819 -0.0102297 -0)
(-0.0010095 -0.0102029 -0)
(-0.00101991 -0.0101735 -0)
(-0.0010258 -0.0101405 -0)
(-0.001027 -0.0101033 -0)
(-0.00102321 -0.0100594 -0)
(-0.00101408 -0.0100055 -0)
(-0.000999358 -0.00993769 -0)
(-0.000978923 -0.00985299 -0)
(-0.000952994 -0.00975074 -0)
(-0.000922224 -0.00963451 -0)
(-0.000887624 -0.00951216 -0)
(-0.000850343 -0.00939457 -0)
(-0.000811339 -0.00929277 -0)
(-0.000771042 -0.00921402 -0)
(-0.000729242 -0.00915937 -0)
(-0.000685246 -0.00912349 -0)
(-0.000637787 -0.0090904 -0)
(-2.93086e-05 -0.00867899 -0)
(-8.92356e-05 -0.00908373 -0)
(-0.0001465 -0.00925632 -0)
(-0.000201739 -0.00932708 -0)
(-0.000255627 -0.00935367 -0)
(-0.000308547 -0.00936096 -0)
(-0.000360648 -0.00935952 -0)
(-0.000411937 -0.00935382 -0)
(-0.000462343 -0.00934577 -0)
(-0.000511747 -0.00933621 -0)
(-0.000560007 -0.00932552 -0)
(-0.000606959 -0.0093139 -0)
(-0.000652425 -0.00930142 -0)
(-0.000696204 -0.00928799 -0)
(-0.000738095 -0.00927369 -0)
(-0.000777873 -0.00925837 -0)
(-0.000815297 -0.00924184 -0)
(-0.000850107 -0.00922374 -0)
(-0.000881193 -0.00919457 -0)
(-0.000909445 -0.0091664 -0)
(-0.000934556 -0.00913842 -0)
(-0.000956268 -0.0091104 -0)
(-0.000974199 -0.00908076 -0)
(-0.000988107 -0.00904918 -0)
(-0.000997741 -0.00901502 -0)
(-0.0010028 -0.00897696 -0)
(-0.00100299 -0.00893334 -0)
(-0.000997885 -0.00888067 -0)
(-0.000986965 -0.00881408 -0)
(-0.000969771 -0.00872805 -0)
(-0.000946071 -0.008618 -0)
(-0.000916103 -0.0084826 -0)
(-0.000880748 -0.00832603 -0)
(-0.000841466 -0.00815845 -0)
(-0.000799981 -0.00799428 -0)
(-0.000757806 -0.00784849 -0)
(-0.000715744 -0.00773154 -0)
(-0.000673663 -0.0076458 -0)
(-0.00063067 -0.00758508 -0)
(-0.000585253 -0.00753311 -0)
(-2.82674e-05 -0.00772571 -0)
(-8.66211e-05 -0.00812517 -0)
(-0.000142752 -0.00829693 -0)
(-0.00019697 -0.00836728 -0)
(-0.000249834 -0.0083927 -0)
(-0.000301696 -0.00839788 -0)
(-0.0003527 -0.00839346 -0)
(-0.000402856 -0.00838409 -0)
(-0.000452098 -0.00837181 -0)
(-0.000500312 -0.00835757 -0)
(-0.000547364 -0.00834185 -0)
(-0.000593094 -0.00832494 -0)
(-0.000637332 -0.00830695 -0)
(-0.000679881 -0.00828788 -0)
(-0.000720547 -0.00826781 -0)
(-0.000759111 -0.00824665 -0)
(-0.000795329 -0.00822418 -0)
(-0.000828409 -0.00819458 -0)
(-0.000858518 -0.00816208 -0)
(-0.000885735 -0.00812966 -0)
(-0.000909835 -0.00809734 -0)
(-0.000930583 -0.00806504 -0)
(-0.000947636 -0.00803164 -0)
(-0.000960729 -0.00799664 -0)
(-0.000969574 -0.00795917 -0)
(-0.000973802 -0.00791742 -0)
(-0.000972965 -0.00786863 -0)
(-0.000966429 -0.00780797 -0)
(-0.000953426 -0.0077287 -0)
(-0.000933215 -0.00762313 -0)
(-0.000905359 -0.00748472 -0)
(-0.000870081 -0.00731106 -0)
(-0.000828529 -0.00710686 -0)
(-0.000782739 -0.00688483 -0)
(-0.000735219 -0.00666367 -0)
(-0.000688267 -0.00646319 -0)
(-0.000643251 -0.006298 -0)
(-0.000600205 -0.00617232 -0)
(-0.000557203 -0.00607013 -0)
(-0.000515348 -0.00600688 -0)
(-2.71033e-05 -0.00686255 -0)
(-8.36046e-05 -0.00725279 -0)
(-0.000138334 -0.00742207 -0)
(-0.000191277 -0.0074914 -0)
(-0.000242871 -0.00751549 -0)
(-0.000293429 -0.0075186 -0)
(-0.000343084 -0.00751137 -0)
(-0.000391849 -0.00749853 -0)
(-0.000439661 -0.00748226 -0)
(-0.000486413 -0.0074636 -0)
(-0.000531976 -0.00744313 -0)
(-0.000576201 -0.00742121 -0)
(-0.000618921 -0.00739804 -0)
(-0.000659951 -0.00737366 -0)
(-0.000699102 -0.00734816 -0)
(-0.000736161 -0.0073215 -0)
(-0.000770781 -0.00729238 -0)
(-0.000802041 -0.00725437 -0)
(-0.000830852 -0.00721815 -0)
(-0.000856818 -0.00718205 -0)
(-0.000879743 -0.00714624 -0)
(-0.000899415 -0.00711075 -0)
(-0.00091553 -0.00707482 -0)
(-0.000927804 -0.00703779 -0)
(-0.000935899 -0.00699847 -0)
(-0.000939342 -0.00695445 -0)
(-0.000937487 -0.00690175 -0)
(-0.000929421 -0.00683387 -0)
(-0.000914016 -0.00674181 -0)
(-0.00089013 -0.00661526 -0)
(-0.000857015 -0.00644516 -0)
(-0.000814825 -0.00622762 -0)
(-0.000765015 -0.00596774 -0)
(-0.000710347 -0.00568103 -0)
(-0.000654365 -0.00539115 -0)
(-0.000600444 -0.0051238 -0)
(-0.000550768 -0.00489865 -0)
(-0.000505677 -0.00472245 -0)
(-0.000462953 -0.00457875 -0)
(-0.000424839 -0.00449494 -0)
(-2.58425e-05 -0.00608236 -0)
(-8.02522e-05 -0.00645992 -0)
(-0.000133337 -0.00662524 -0)
(-0.000184772 -0.00669293 -0)
(-0.000234869 -0.0067155 -0)
(-0.000283894 -0.00671655 -0)
(-0.000331967 -0.00670661 -0)
(-0.0003791 -0.00669047 -0)
(-0.000425233 -0.00667041 -0)
(-0.000470265 -0.00664755 -0)
(-0.000514073 -0.00662257 -0)
(-0.000556516 -0.00659589 -0)
(-0.000597439 -0.00656779 -0)
(-0.000636664 -0.00653836 -0)
(-0.000674009 -0.00650771 -0)
(-0.000709273 -0.00647583 -0)
(-0.000741397 -0.00643516 -0)
(-0.000771191 -0.00639508 -0)
(-0.000798453 -0.00635551 -0)
(-0.000822972 -0.00631638 -0)
(-0.000844582 -0.00627799 -0)
(-0.000863102 -0.00624045 -0)
(-0.000878262 -0.00620325 -0)
(-0.000889759 -0.00616559 -0)
(-0.000897188 -0.00612587 -0)
(-0.000899934 -0.00608096 -0)
(-0.000897097 -0.0060255 -0)
(-0.000887391 -0.00595103 -0)
(-0.000869192 -0.00584589 -0)
(-0.000840815 -0.00569657 -0)
(-0.000801062 -0.00549098 -0)
(-0.000749941 -0.00522328 -0)
(-0.000689256 -0.00489878 -0)
(-0.000622682 -0.00453611 -0)
(-0.000555099 -0.00416455 -0)
(-0.000491319 -0.00381667 -0)
(-0.000434652 -0.00351817 -0)
(-0.000385738 -0.00327742 -0)
(-0.000343329 -0.00308871 -0)
(-0.000309474 -0.00297825 -0)
(-2.45094e-05 -0.00537845 -0)
(-7.66276e-05 -0.00574047 -0)
(-0.000127852 -0.0059005 -0)
(-0.000177567 -0.00596595 -0)
(-0.000225958 -0.00598678 -0)
(-0.000273239 -0.00598573 -0)
(-0.000319515 -0.00597315 -0)
(-0.000364791 -0.00595383 -0)
(-0.000409011 -0.00593011 -0)
(-0.000452076 -0.00590322 -0)
(-0.000493873 -0.0058739 -0)
(-0.000534267 -0.00584265 -0)
(-0.000573114 -0.00580979 -0)
(-0.000610247 -0.00577549 -0)
(-0.000645492 -0.00573985 -0)
(-0.000678086 -0.005698 -0)
(-0.00070817 -0.00565327 -0)
(-0.000736071 -0.00560991 -0)
(-0.000761551 -0.00556744 -0)
(-0.000784453 -0.00552603 -0)
(-0.000804645 -0.00548604 -0)
(-0.000821977 -0.00544765 -0)
(-0.000836208 -0.00541047 -0)
(-0.000847013 -0.00537353 -0)
(-0.000853895 -0.00533477 -0)
(-0.000856059 -0.0052902 -0)
(-0.00085228 -0.00523292 -0)
(-0.00084078 -0.00515221 -0)
(-0.000819284 -0.0050333 -0)
(-0.000785373 -0.00485892 -0)
(-0.000737226 -0.00461333 -0)
(-0.000674613 -0.00428828 -0)
(-0.000599741 -0.00388921 -0)
(-0.000517422 -0.00343812 -0)
(-0.000434246 -0.00297069 -0)
(-0.000356893 -0.00252725 -0)
(-0.000290168 -0.00214042 -0)
(-0.000234109 -0.00181233 -0)
(-0.000192692 -0.00157933 -0)
(-0.000163886 -0.00143704 -0)
(-2.31264e-05 -0.0047446 -0)
(-7.27916e-05 -0.0050888 -0)
(-0.000121967 -0.00524239 -0)
(-0.000169773 -0.00530505 -0)
(-0.000216269 -0.00532388 -0)
(-0.000261614 -0.00532066 -0)
(-0.000305892 -0.00530544 -0)
(-0.000349102 -0.00528299 -0)
(-0.000391186 -0.00525572 -0)
(-0.00043205 -0.00522488 -0)
(-0.000471585 -0.00519132 -0)
(-0.000509666 -0.00515558 -0)
(-0.000546159 -0.00511806 -0)
(-0.000580906 -0.00507895 -0)
(-0.000613428 -0.00503573 -0)
(-0.000643235 -0.00498639 -0)
(-0.000671126 -0.00493888 -0)
(-0.000696878 -0.00489262 -0)
(-0.000720376 -0.00484787 -0)
(-0.000741525 -0.00480503 -0)
(-0.000760234 -0.00476449 -0)
(-0.000776383 -0.00472646 -0)
(-0.000789752 -0.00469056 -0)
(-0.000799981 -0.00465559 -0)
(-0.000806461 -0.00461897 -0)
(-0.000808165 -0.00457572 -0)
(-0.000803455 -0.00451726 -0)
(-0.000789924 -0.00443026 -0)
(-0.000764444 -0.00429632 -0)
(-0.000723631 -0.00409384 -0)
(-0.000664826 -0.00380277 -0)
(-0.00058745 -0.00341203 -0)
(-0.000494188 -0.00292711 -0)
(-0.00039128 -0.00237383 -0)
(-0.000287487 -0.00179502 -0)
(-0.000191873 -0.00123971 -0)
(-0.000111202 -0.000748277 -0)
(-4.65275e-05 -0.000328538 -0)
(-4.65883e-06 -3.4832e-05 -0)
(1.85527e-05 0.000148445 0)
(-2.17135e-05 -0.00417501 -0)
(-6.88016e-05 -0.00449971 -0)
(-0.000115768 -0.00464593 -0)
(-0.0001615 -0.00470529 -0)
(-0.000205931 -0.00472184 -0)
(-0.000249167 -0.00471631 -0)
(-0.000291265 -0.00469841 -0)
(-0.000332212 -0.00467284 -0)
(-0.00037195 -0.00464201 -0)
(-0.000410385 -0.00460725 -0)
(-0.000447411 -0.00456944 -0)
(-0.000482913 -0.00452921 -0)
(-0.000516765 -0.004487 -0)
(-0.000548707 -0.00444208 -0)
(-0.000577761 -0.00438843 -0)
(-0.000605081 -0.00433676 -0)
(-0.00063045 -0.00428631 -0)
(-0.000653827 -0.00423767 -0)
(-0.000675181 -0.00419143 -0)
(-0.000694481 -0.0041481 -0)
(-0.000711681 -0.00410811 -0)
(-0.000726688 -0.0040716 -0)
(-0.000739291 -0.00403812 -0)
(-0.000749082 -0.00400619 -0)
(-0.00075531 -0.00397265 -0)
(-0.000756655 -0.0039314 -0)
(-0.000750963 -0.00387199 -0)
(-0.000735022 -0.00377809 -0)
(-0.000704606 -0.00362717 -0)
(-0.000655071 -0.00339257 -0)
(-0.000582657 -0.00304929 -0)
(-0.000486312 -0.002583 -0)
(-0.000369307 -0.00199932 -0)
(-0.000239694 -0.0013285 -0)
(-0.000108984 -0.000621412 -0)
(1.0759e-05 6.34621e-05 0)
(0.000110455 0.000678422 0)
(0.000186023 0.00119902 0)
(0.000229178 0.00156455 0)
(0.000246133 0.00179929 0)
(-2.02888e-05 -0.00366429 -0)
(-6.47115e-05 -0.00396836 -0)
(-0.00010934 -0.00410647 -0)
(-0.000152855 -0.00416207 -0)
(-0.000195075 -0.00417606 -0)
(-0.000236045 -0.00416806 -0)
(-0.000275795 -0.00414737 -0)
(-0.000314297 -0.00411859 -0)
(-0.000351488 -0.00408415 -0)
(-0.000387269 -0.00404538 -0)
(-0.000421539 -0.00400324 -0)
(-0.000454188 -0.00395839 -0)
(-0.000485098 -0.00391131 -0)
(-0.000513044 -0.00385399 -0)
(-0.000539322 -0.00379826 -0)
(-0.00056375 -0.00374351 -0)
(-0.000586349 -0.00369055 -0)
(-0.000607172 -0.00364029 -0)
(-0.000626266 -0.00359346 -0)
(-0.000643663 -0.00355065 -0)
(-0.000659363 -0.00351225 -0)
(-0.000673297 -0.00347832 -0)
(-0.000685248 -0.00344823 -0)
(-0.000694741 -0.00342018 -0)
(-0.000700848 -0.00339035 -0)
(-0.000701886 -0.00335142 -0)
(-0.000695054 -0.0032908 -0)
(-0.000676116 -0.00318879 -0)
(-0.00063944 -0.00301806 -0)
(-0.000578754 -0.00274616 -0)
(-0.00048887 -0.0023424 -0)
(-0.000368118 -0.00178887 -0)
(-0.000220528 -0.00109158 -0)
(-5.64736e-05 -0.000286017 -0)
(0.000109043 0.000567876 0)
(0.0002602 0.0014014 0)
(0.000386956 0.00216997 0)
(0.000474405 0.0027924 0)
(0.000519337 0.00323956 0)
(0.000529207 0.00353812 0)
(-1.8868e-05 -0.0032074 -0)
(-6.0571e-05 -0.00349024 -0)
(-0.000102761 -0.00361972 -0)
(-0.000143945 -0.00367115 -0)
(-0.000183827 -0.0036823 -0)
(-0.000222394 -0.00367161 -0)
(-0.000259643 -0.00364797 -0)
(-0.000295529 -0.00361582 -0)
(-0.000329976 -0.0035776 -0)