/*--------------------------------*- C++ -*----------------------------------*\
  =========                 |
  \\      /  F ield         | OpenFOAM: The Open Source CFD Toolbox
   \\    /   O peration     | Website:  https://openfoam.org
    \\  /    A nd           | Version:  6
     \\/     M anipulation  |
\*---------------------------------------------------------------------------*/
FoamFile
{
    version     2.0;
    format      ascii;
    class       surfaceScalarField;
    location    "40";
    object      phi;
}
// * * * * * * * * * * * * * * * * * * * * * * * * * * * * * * * * * * * * * //

dimensions      [0 3 -1 0 0 0 0];

internalField   nonuniform List<scalar> 
17340
(
-1.3035e-10
1.30344e-10
-1.03652e-10
-2.66974e-11
-7.20903e-11
-3.15621e-11
-5.70357e-11
-1.50545e-11
-5.30969e-11
-3.9388e-12
-5.51143e-11
2.0174e-12
-6.00839e-11
4.96953e-12
-6.66811e-11
6.59725e-12
-7.42027e-11
7.52155e-12
-8.22551e-11
8.05241e-12
-9.05907e-11
8.33561e-12
-9.90297e-11
8.43898e-12
-1.0742e-10
8.39067e-12
-1.15617e-10
8.19678e-12
-1.23469e-10
7.85163e-12
-1.30813e-10
7.34403e-12
-1.37472e-10
6.65926e-12
-1.43254e-10
5.78206e-12
-1.47955e-10
4.70081e-12
-1.51368e-10
3.41339e-12
-1.53303e-10
1.93505e-12
-1.53654e-10
3.50492e-13
-1.51839e-10
-1.81482e-12
-1.47511e-10
-4.3281e-12
-1.40357e-10
-7.15365e-12
-1.30141e-10
-1.02161e-11
-1.16795e-10
-1.33459e-11
-1.00502e-10
-1.6293e-11
-8.17282e-11
-1.87741e-11
-6.12339e-11
-2.04943e-11
-4.00304e-11
-2.12035e-11
-1.92641e-11
-2.07663e-11
-3.32472e-13
-1.89316e-11
1.63206e-11
-1.66531e-11
3.01523e-11
-1.38316e-11
4.10638e-11
-1.09115e-11
4.99074e-11
-8.84365e-12
5.65732e-11
-6.66582e-12
6.10738e-11
-4.50053e-12
-2.61529e-12
6.3689e-11
5.70742e-11
7.32701e-11
-3.46051e-12
3.38373e-11
-5.21341e-11
1.71115e-11
-8.56728e-11
1.84841e-11
-1.12645e-10
2.30334e-11
-1.37111e-10
2.64833e-11
-1.60791e-10
2.86498e-11
-1.84488e-10
3.02939e-11
-2.08428e-10
3.14616e-11
-2.32543e-10
3.21674e-11
-2.56639e-10
3.24321e-11
-2.80466e-10
3.22662e-11
-3.03738e-10
3.16621e-11
-3.26135e-10
3.05936e-11
-3.47305e-10
2.90218e-11
-3.66863e-10
2.6902e-11
-3.84391e-10
2.4187e-11
-3.99442e-10
2.08333e-11
-4.11552e-10
1.68112e-11
-4.20258e-10
1.21192e-11
-4.2511e-10
6.78685e-12
-4.25523e-10
7.63388e-13
-4.21297e-10
-6.04008e-12
-4.11663e-10
-1.39628e-11
-3.95998e-10
-2.28186e-11
-3.73927e-10
-3.22873e-11
-3.45402e-10
-4.18702e-11
-3.108e-10
-5.08953e-11
-2.70962e-10
-5.86121e-11
-2.27188e-10
-6.42685e-11
-1.81143e-10
-6.72487e-11
-1.34659e-10
-6.72499e-11
-8.93346e-11
-6.42561e-11
-4.71396e-11
-5.88481e-11
-9.16436e-12
-5.18069e-11
2.35449e-11
-4.36207e-11
4.99739e-11
-3.52726e-11
7.0693e-11
-2.7385e-11
8.62939e-11
-2.01014e-11
-1.37504e-11
9.7429e-11
2.56391e-11
4.7631e-11
-1.8449e-11
7.79254e-11
-7.6955e-11
7.56176e-11
-1.29557e-10
7.10865e-11
-1.75928e-10
6.94037e-11
-2.1873e-10
6.92854e-11
-2.59847e-10
6.97671e-11
-2.99994e-10
7.04411e-11
-3.39453e-10
7.092e-11
-3.78231e-10
7.09458e-11
-4.16165e-10
7.03655e-11
-4.52975e-10
6.90762e-11
-4.88302e-10
6.69892e-11
-5.21723e-10
6.40151e-11
-5.52764e-10
6.0062e-11
-5.80902e-10
5.50406e-11
-6.05581e-10
4.8866e-11
-6.26214e-10
4.14661e-11
-6.42199e-10
3.27963e-11
-6.5294e-10
2.28606e-11
-6.57869e-10
1.17151e-11
-6.56508e-10
-5.97285e-13
-6.48586e-10
-1.39623e-11
-6.3344e-10
-2.91082e-11
-6.10541e-10
-4.57177e-11
-5.79655e-10
-6.31735e-11
-5.40931e-10
-8.05947e-11
-4.94964e-10
-9.68619e-11
-4.42822e-10
-1.10754e-10
-3.86017e-10
-1.21074e-10
-3.26415e-10
-1.26851e-10
-2.66063e-10
-1.27601e-10
-2.07005e-10
-1.23314e-10
-1.51167e-10
-1.14686e-10
-1.00159e-10
-1.02815e-10
-5.48227e-11
-8.8957e-11
-1.5521e-11
-7.45743e-11
1.76187e-11
-6.05247e-11
4.48344e-11
-4.7317e-11
-3.54486e-11
6.65326e-11
-1.94133e-11
6.70443e-11
-6.22307e-11
1.20743e-10
-1.18233e-10
1.3162e-10
-1.77285e-10
1.30138e-10
-2.35271e-10
1.27391e-10
-2.91581e-10
1.25595e-10
-3.46412e-10
1.24598e-10
-3.99848e-10
1.23878e-10
-4.51878e-10
1.22949e-10
-5.02378e-10
1.21446e-10
-5.51117e-10
1.19104e-10
-5.97765e-10
1.15725e-10
-6.41915e-10
1.11139e-10
-6.83093e-10
1.05193e-10
-7.20774e-10
9.7743e-11
-7.54395e-10
8.86619e-11
-7.83368e-10
7.78386e-11
-8.07091e-10
6.51893e-11
-8.2497e-10
5.06757e-11
-8.36442e-10
3.43318e-11
-8.41003e-10
1.62767e-11
-8.3826e-10
-3.34032e-12
-8.27615e-10
-2.46077e-11
-8.08673e-10
-4.80498e-11
-7.8114e-10
-7.32512e-11
-7.44981e-10
-9.93322e-11
-7.00505e-10
-1.2507e-10
-6.48419e-10
-1.48948e-10
-5.89844e-10
-1.69329e-10
-5.26299e-10
-1.84618e-10
-4.59627e-10
-1.93523e-10
-3.9185e-10
-1.95378e-10
-3.25017e-10
-1.90148e-10
-2.60992e-10
-1.78711e-10
-2.01314e-10
-1.62493e-10
-1.47016e-10
-1.43255e-10
-9.87135e-11
-1.22877e-10
-5.66078e-11
-1.0263e-10
-2.0583e-11
-8.33419e-11
-6.55253e-11
9.49373e-12
-3.11455e-11
9.81898e-11
-8.30814e-11
1.72679e-10
-1.45909e-10
1.94448e-10
-2.13077e-10
1.97306e-10
-2.80884e-10
1.95198e-10
-3.47751e-10
1.92462e-10
-4.13063e-10
1.8991e-10
-4.76509e-10
1.87324e-10
-5.37859e-10
1.84299e-10
-5.96868e-10
1.80455e-10
-6.53235e-10
1.75472e-10
-7.06594e-10
1.69084e-10
-7.56517e-10
1.61062e-10
-8.02527e-10
1.51202e-10
-8.44107e-10
1.39323e-10
-8.80718e-10
1.25273e-10
-9.11808e-10
1.08929e-10
-9.36831e-10
9.02121e-11
-9.55261e-10
6.91057e-11
-9.6661e-10
4.56811e-11
-9.70437e-10
2.01041e-11
-9.66319e-10
-7.45879e-12
-9.53654e-10
-3.72723e-11
-9.32151e-10
-6.95533e-11
-9.01695e-10
-1.03707e-10
-8.62395e-10
-1.38633e-10
-8.14639e-10
-1.72825e-10
-7.59165e-10
-2.04422e-10
-6.97078e-10
-2.31416e-10
-6.29852e-10
-2.51845e-10
-5.59273e-10
-2.64102e-10
-4.87313e-10
-2.67338e-10
-4.15988e-10
-2.61473e-10
-3.4715e-10
-2.47549e-10
-2.82345e-10
-2.27297e-10
-2.22713e-10
-2.02888e-10
-1.68956e-10
-1.76634e-10
-1.21403e-10
-1.50184e-10
-8.01088e-11
-1.24636e-10
-1.00678e-10
-4.49565e-11
-3.27997e-11
1.30989e-10
-9.22015e-11
2.3208e-10
-1.6266e-10
2.64906e-10
-2.37219e-10
2.71865e-10
-3.1247e-10
2.70449e-10
-3.86719e-10
2.6671e-10
-4.59103e-10
2.62294e-10
-5.29123e-10
2.57343e-10
-5.9641e-10
2.51587e-10
-6.60633e-10
2.44677e-10
-7.21439e-10
2.36278e-10
-7.78445e-10
2.2609e-10
-8.31229e-10
2.13846e-10
-8.79339e-10
1.99312e-10
-9.22299e-10
1.82284e-10
-9.59624e-10
1.62597e-10
-9.90826e-10
1.40131e-10
-1.01543e-09
1.14814e-10
-1.03298e-09
8.66528e-11
-1.04304e-09
5.57463e-11
-1.04522e-09
2.22839e-11
-1.03911e-09
-1.35667e-11
-1.02422e-09
-5.21635e-11
-1.00032e-09
-9.34545e-11
-9.67379e-10
-1.36648e-10
-9.25565e-10
-1.80447e-10
-8.75293e-10
-2.23098e-10
-8.17292e-10
-2.62423e-10
-7.52651e-10
-2.96057e-10
-6.82828e-10
-3.21668e-10
-6.09619e-10
-3.3731e-10
-5.3503e-10
-3.41927e-10
-4.61135e-10
-3.35368e-10
-3.89855e-10
-3.1883e-10
-3.22801e-10
-2.9435e-10
-2.61164e-10
-2.64525e-10
-2.05648e-10
-2.3215e-10
-1.56579e-10
-1.99252e-10
-1.13992e-10
-1.67223e-10
-1.36976e-10
-7.76933e-11
-3.40216e-11
1.65011e-10
-9.70286e-11
2.95087e-10
-1.71677e-10
3.39554e-10
-2.50445e-10
3.50633e-10
-3.29798e-10
3.49802e-10
-4.07947e-10
3.44859e-10
-4.83908e-10
3.38255e-10
-5.57064e-10
3.30499e-10
-6.2696e-10
3.21483e-10
-6.93202e-10
3.10919e-10
-7.55409e-10
2.98485e-10
-8.13194e-10
2.83875e-10
-8.66158e-10
2.6681e-10
-9.1389e-10
2.47044e-10
-9.55971e-10
2.24364e-10
-9.91979e-10
1.98606e-10
-1.0215e-09
1.69651e-10
-1.04413e-09
1.37442e-10
-1.05947e-09
1.02e-10
-1.06717e-09
6.34404e-11
-1.06685e-09
2.1963e-11
-1.05814e-09
-2.22701e-11
-1.04061e-09
-6.9702e-11
-1.01406e-09
-1.20003e-10
-9.78499e-10
-1.72207e-10
-9.34104e-10
-2.24841e-10
-8.81278e-10
-2.75924e-10
-8.20737e-10
-3.22964e-10
-7.53573e-10
-3.63221e-10
-6.81284e-10
-3.93958e-10
-6.05753e-10
-4.12841e-10
-5.29116e-10
-4.18564e-10
-4.53616e-10
-4.10868e-10
-3.81326e-10
-3.9112e-10
-3.13981e-10
-3.61695e-10
-2.52839e-10
-3.25667e-10
-1.98556e-10
-2.86433e-10
-1.51366e-10
-2.46442e-10
-1.11167e-10
-2.07423e-10
-1.70588e-10
-7.75545e-11
-3.43458e-11
1.99357e-10
-9.78982e-11
3.5864e-10
-1.73306e-10
4.14962e-10
-2.52886e-10
4.30213e-10
-3.32976e-10
4.29892e-10
-4.11691e-10
4.23574e-10
-4.87958e-10
4.14522e-10
-5.61084e-10
4.03625e-10
-6.30556e-10
3.90955e-10
-6.95942e-10
3.76305e-10
-7.56849e-10
3.59392e-10
-8.12901e-10
3.39927e-10
-8.63728e-10
3.17638e-10
-9.08967e-10
2.92283e-10
-9.48256e-10
2.63654e-10
-9.81241e-10
2.31591e-10
-1.00758e-09
1.95986e-10
-1.02693e-09
1.56791e-10
-1.03896e-09
1.14036e-10
-1.04336e-09
6.78357e-11
-1.03977e-09
1.83753e-11
-1.02783e-09
-3.42055e-11
-1.00712e-09
-9.04203e-11
-9.77452e-10
-1.49666e-10
-9.38834e-10
-2.10825e-10
-8.91413e-10
-2.72262e-10
-8.35568e-10
-3.31769e-10
-7.7201e-10
-3.86522e-10
-7.01864e-10
-4.33367e-10
-6.26721e-10
-4.69101e-10
-5.48624e-10
-4.90938e-10
-4.69931e-10
-4.97256e-10
-3.93147e-10
-4.87653e-10
-3.20577e-10
-4.63689e-10
-2.5414e-10
-4.28132e-10
-1.95217e-10
-3.8459e-10
-1.44384e-10
-3.37266e-10
-1.01742e-10
-2.89084e-10
-6.70009e-11
-2.42164e-10
-1.98129e-10
-3.94601e-11
-3.31754e-11
2.32532e-10
-9.47319e-11
4.20196e-10
-1.67975e-10
4.88205e-10
-2.45343e-10
5.07582e-10
-3.23153e-10
5.07703e-10
-3.9947e-10
4.99891e-10
-4.73167e-10
4.88219e-10
-5.43504e-10
4.73963e-10
-6.09935e-10
4.57385e-10
-6.7201e-10
4.3838e-10
-7.29336e-10
4.16719e-10
-7.81555e-10
3.92146e-10
-8.28331e-10
3.64414e-10
-8.69344e-10
3.33296e-10
-9.04288e-10
2.98598e-10
-9.32868e-10
2.6017e-10
-9.54796e-10
2.17914e-10
-9.69794e-10
1.71789e-10
-9.77588e-10
1.2183e-10
-9.77879e-10
6.81274e-11
-9.7031e-10
1.08062e-11
-9.54459e-10
-5.0057e-11
-9.29935e-10
-1.14944e-10
-8.96553e-10
-1.83048e-10
-8.54258e-10
-2.53121e-10
-8.03156e-10
-3.23364e-10
-7.43603e-10
-3.91323e-10
-6.76316e-10
-4.53808e-10
-6.02489e-10
-5.07194e-10
-5.23853e-10
-5.47737e-10
-4.42667e-10
-5.72124e-10
-3.61593e-10
-5.78331e-10
-2.83476e-10
-5.65769e-10
-2.10911e-10
-5.36254e-10
-1.46018e-10
-4.93025e-10
-9.03779e-11
-4.4023e-10
-4.45052e-11
-3.83139e-10
-8.38442e-12
-3.25205e-10
1.85466e-11
-2.69095e-10
-2.16799e-10
3.72167e-11
-3.06957e-11
2.63228e-10
-8.80473e-11
4.77548e-10
-1.56599e-10
5.56756e-10
-2.29153e-10
5.80136e-10
-3.02104e-10
5.80654e-10
-3.73511e-10
5.71298e-10
-4.42223e-10
5.5693e-10
-5.07477e-10
5.39217e-10
-5.68711e-10
5.18619e-10
-6.25473e-10
4.95141e-10
-6.77377e-10
4.68623e-10
-7.24086e-10
4.38854e-10
-7.65296e-10
4.05623e-10
-8.00727e-10
3.68728e-10
-8.30118e-10
3.27989e-10
-8.53219e-10
2.83271e-10
-8.69785e-10
2.3448e-10
-8.79577e-10
1.81581e-10
-8.82355e-10
1.24608e-10
-8.77851e-10
6.36238e-11
-8.6568e-10
-1.36508e-12
-8.45257e-10
-7.04803e-11
-8.16286e-10
-1.43915e-10
-7.78523e-10
-2.2081e-10
-7.31845e-10
-2.99798e-10
-6.76304e-10
-3.78905e-10
-6.12249e-10
-4.55377e-10
-5.40426e-10
-5.25631e-10
-4.62131e-10
-5.8549e-10
-3.79303e-10
-6.30565e-10
-2.94438e-10
-6.56989e-10
-2.10573e-10
-6.62196e-10
-1.30932e-10
-6.45411e-10
-5.8422e-11
-6.08764e-10
4.66863e-12
-5.56116e-10
5.66167e-11
-4.92178e-10
9.65185e-11
-4.2304e-10
1.24643e-10
-3.5333e-10
1.41956e-10
-2.86408e-10
-2.24549e-10
1.49706e-10
-2.71974e-11
2.90425e-10
-7.85326e-11
5.28883e-10
-1.40311e-10
6.18535e-10
-2.05917e-10
6.45741e-10
-2.71911e-10
6.46648e-10
-3.36385e-10
6.35772e-10
-3.98187e-10
6.18732e-10
-4.56547e-10
5.97578e-10
-5.10901e-10
5.72973e-10
-5.608e-10
5.45041e-10
-6.05876e-10
5.13698e-10
-6.4581e-10
4.78789e-10
-6.80327e-10
4.4014e-10
-7.09179e-10
3.97581e-10
-7.32138e-10
3.50948e-10
-7.48984e-10
3.00116e-10
-7.59493e-10
2.44989e-10
-7.63433e-10
1.85521e-10
-7.60543e-10
1.21718e-10
-7.50541e-10
5.36217e-11
-7.33169e-10
-1.87374e-11
-7.07671e-10
-9.5978e-11
-6.73632e-10
-1.77954e-10
-6.30776e-10
-2.63666e-10
-5.78938e-10
-3.51636e-10
-5.18106e-10
-4.39738e-10
-4.48697e-10
-5.24786e-10
-3.715e-10
-6.02829e-10
-2.87952e-10
-6.69037e-10
-2.00316e-10
-7.18201e-10
-1.1131e-10
-7.45995e-10
-2.42797e-11
-7.49226e-10
5.71781e-11
-7.26869e-10
1.29537e-10
-6.81123e-10
1.9027e-10
-6.16849e-10
2.38025e-10
-5.39933e-10
2.71791e-10
-4.56806e-10
2.91623e-10
-3.73162e-10
2.98499e-10
-2.93283e-10
-2.20026e-10
2.93975e-10
-2.29539e-11
3.13379e-10
-6.69163e-11
5.72845e-10
-1.20339e-10
6.71958e-10
-1.77365e-10
7.02767e-10
-2.34802e-10
7.04085e-10
-2.90814e-10
6.91784e-10
-3.44265e-10
6.72183e-10
-3.94391e-10
6.47704e-10
-4.40634e-10
6.19215e-10
-4.82558e-10
5.86965e-10
-5.19807e-10
5.50948e-10
-5.52085e-10
5.11066e-10
-5.79135e-10
4.67191e-10
-6.00736e-10
4.19181e-10
-6.16677e-10
3.6689e-10
-6.26754e-10
3.10193e-10
-6.3075e-10
2.48985e-10
-6.28417e-10
1.83188e-10
-6.19451e-10
1.12752e-10
-6.03499e-10
3.76696e-11
-5.80237e-10
-4.1999e-11
-5.48908e-10
-1.27307e-10
-5.08997e-10
-2.17865e-10
-4.60193e-10
-3.12471e-10
-4.02312e-10
-4.09517e-10
-3.35201e-10
-5.06849e-10
-2.59531e-10
-6.00455e-10
-1.76197e-10
-6.86163e-10
-8.67719e-11
-7.58462e-10
6.29285e-12
-8.11266e-10
9.95496e-11
-8.39252e-10
1.8908e-10
-8.38756e-10
2.71719e-10
-8.09508e-10
3.44227e-10
-7.53631e-10
4.0355e-10
-6.76173e-10
4.47616e-10
-5.83998e-10
4.75293e-10
-4.84484e-10
4.86579e-10
-3.84448e-10
4.82494e-10
-2.89198e-10
-2.02371e-10
4.64839e-10
-1.82445e-11
3.31624e-10
-5.39436e-11
6.08544e-10
-9.79322e-11
7.15946e-10
-1.45246e-10
7.50081e-10
-1.93014e-10
7.51853e-10
-2.39507e-10
7.38276e-10
-2.83623e-10
7.163e-10
-3.24616e-10
6.88696e-10
-3.61938e-10
6.56537e-10
-3.95166e-10
6.20193e-10
-4.23959e-10
5.79741e-10
-4.48035e-10
5.35142e-10
-4.67151e-10
4.86307e-10
-4.81093e-10
4.33123e-10
-4.89658e-10
3.75455e-10
-4.92637e-10
3.13173e-10
-4.89796e-10
2.46144e-10
-4.80844e-10
1.74236e-10
-4.65402e-10
9.731e-11
-4.42972e-10
1.5239e-11
-4.13063e-10
-7.19082e-11
-3.75079e-10
-1.65291e-10
-3.28296e-10
-2.64647e-10
-2.72465e-10
-3.68302e-10
-2.07517e-10
-4.74464e-10
-1.33116e-10
-5.8125e-10
-5.02017e-11
-6.8337e-10
3.99389e-11
-7.76303e-10
1.35049e-10
-8.53572e-10
2.32377e-10
-9.08594e-10
3.29098e-10
-9.35974e-10
4.21951e-10
-9.31608e-10
5.06997e-10
-8.94553e-10
5.80375e-10
-8.2701e-10
6.3862e-10
-7.34417e-10
6.79194e-10
-6.24572e-10
7.0078e-10
-5.0607e-10
7.03326e-10
-3.86994e-10
6.87926e-10
-2.73798e-10
-1.7104e-10
6.56595e-10
-1.33437e-11
3.44968e-10
-4.03364e-11
6.35537e-10
-7.42939e-11
7.49904e-10
-1.11238e-10
7.87025e-10
-1.4868e-10
7.89295e-10
-1.85034e-10
7.7463e-10
-2.19252e-10
7.50518e-10
-2.5061e-10
7.20054e-10
-2.78574e-10
6.84502e-10
-3.02734e-10
6.44352e-10
-3.22758e-10
5.99765e-10
-3.3837e-10
5.50754e-10
-3.49328e-10
4.97264e-10
-3.55404e-10
4.39199e-10
-3.56384e-10
3.76435e-10
-3.52031e-10
3.0882e-10
-3.42053e-10
2.36166e-10
-3.26046e-10
1.58229e-10
-3.03447e-10
7.47108e-11
-2.738e-10
-1.44083e-11
-2.36412e-10
-1.09295e-10
-1.90782e-10
-2.10922e-10
-1.35961e-10
-3.19469e-10
-7.18844e-11
-4.32378e-10
1.60225e-12
-5.47951e-10
8.37831e-11
-6.63431e-10
1.73496e-10
-7.73083e-10
2.69354e-10
-8.72161e-10
3.69674e-10
-9.53891e-10
4.72215e-10
-1.01114e-09
5.73794e-10
-1.03755e-09
6.70669e-10
-1.02848e-09
7.58509e-10
-9.82393e-10
8.32949e-10
-9.0145e-10
8.90101e-10
-7.91569e-10
9.27072e-10
-6.61544e-10
9.42349e-10
-5.21346e-10
9.35844e-10
-3.80489e-10
9.08747e-10
-2.46701e-10
-1.25615e-10
8.63322e-10
-8.50116e-12
3.53469e-10
-2.67532e-11
6.53789e-10
-5.05251e-11
7.73676e-10
-7.68759e-11
8.13376e-10
-1.03753e-10
8.16173e-10
-1.29746e-10
8.00623e-10
-1.53878e-10
7.7465e-10
-1.75452e-10
7.41628e-10
-1.93948e-10
7.02998e-10
-2.08961e-10
6.59365e-10
-2.20161e-10
6.10965e-10
-2.27269e-10
5.57862e-10
-2.30026e-10
5.00021e-10
-2.28155e-10
4.37328e-10
-2.21408e-10
3.69688e-10
-2.09489e-10
2.96901e-10
-1.92006e-10
2.18683e-10
-1.68402e-10
1.34625e-10
-1.37762e-10
4.40711e-11
-9.97812e-11
-5.23893e-11
-5.36914e-11
-1.55385e-10
1.24468e-12
-2.65858e-10
6.51977e-11
-3.83422e-10
1.38078e-10
-5.05258e-10
2.19659e-10
-6.29532e-10
3.08998e-10
-7.52771e-10
4.0574e-10
-8.69825e-10
5.08448e-10
-9.74869e-10
6.15292e-10
-1.06073e-09
7.23817e-10
-1.11966e-09
8.30668e-10
-1.1444e-09
9.31723e-10
-1.12954e-09
1.02228e-09
-1.07295e-09
1.09753e-09
-9.76707e-10
1.15321e-09
-8.4725e-10
1.18612e-09
-6.94446e-10
1.19455e-09
-5.29778e-10
1.1784e-09
-3.64346e-10
1.13903e-09
-2.07329e-10
-6.55257e-11
1.07894e-09
-3.93401e-12
3.57403e-10
-1.37649e-11
6.6362e-10
-2.75858e-11
7.87497e-10
-4.35087e-11
8.29299e-10
-5.99558e-11
8.3262e-10
-7.57206e-11
8.16388e-10
-8.99092e-11
7.88839e-10
-1.01855e-10
7.53574e-10
-1.11047e-10
7.12189e-10
-1.17073e-10
6.65392e-10
-1.19591e-10
6.13483e-10
-1.18297e-10
5.56568e-10
-1.129e-10
4.94624e-10
-1.03022e-10
4.2745e-10
-8.83643e-11
3.55031e-10
-6.85081e-11
2.77045e-10
-4.28884e-11
1.93063e-10
-1.07374e-11
1.02474e-10
2.89319e-11
4.40183e-12
7.65544e-11
-1.00012e-10
1.32532e-10
-2.11363e-10
1.97241e-10
-3.30567e-10
2.70496e-10
-4.56677e-10
3.52616e-10
-5.87378e-10
4.43144e-10
-7.2006e-10
5.41276e-10
-8.50902e-10
6.4623e-10
-9.74779e-10
7.56622e-10
-1.08526e-09
8.7051e-10
-1.17462e-09
9.85232e-10
-1.23438e-09
1.09724e-09
-1.25641e-09
1.20213e-09
-1.23442e-09
1.29485e-09
-1.16567e-09
1.37025e-09
-1.0521e-09
1.42367e-09
-9.00678e-10
1.45166e-09
-7.22426e-10
1.45234e-09
-5.30467e-10
1.42563e-09
-3.37629e-10
1.37292e-09
-1.54616e-10
1.0914e-11
1.29648e-09
1.94405e-13
3.57208e-10
-1.82632e-12
6.65641e-10
-6.26276e-12
7.91933e-10
-1.22659e-11
8.35302e-10
-1.87506e-11
8.39104e-10
-2.47312e-11
8.22368e-10
-2.94051e-11
7.93513e-10
-3.21351e-11
7.56304e-10
-3.24058e-11
7.1246e-10
-2.97842e-11
6.6277e-10
-2.3885e-11
6.07584e-10
-1.43386e-11
5.47022e-10
-7.57241e-13
4.81043e-10
1.72647e-11
4.09429e-10
4.01778e-11
3.32118e-10
6.85776e-11
2.48645e-10
1.03273e-10
1.58367e-10
1.45254e-10
6.04926e-11
1.94772e-10
-4.51159e-11
2.52487e-10
-1.57727e-10
3.19135e-10
-2.7801e-10
3.94768e-10
-4.062e-10
4.79139e-10
-5.41048e-10
5.7206e-10
-6.80298e-10
6.72938e-10
-8.20938e-10
7.80907e-10
-9.58871e-10
8.94879e-10
-1.08875e-09
1.01336e-09
-1.20374e-09
1.13429e-09
-1.29555e-09
1.25488e-09
-1.35497e-09
1.37143e-09
-1.37296e-09
1.4793e-09
-1.3423e-09
1.57318e-09
-1.25955e-09
1.64758e-09
-1.1265e-09
1.69754e-09
-9.50639e-10
1.71934e-09
-7.44231e-10
1.71103e-09
-5.22151e-10
1.67257e-09
-2.99168e-10
1.60564e-09
-8.76858e-11
1.04524e-10
1.51203e-09
3.84465e-12
3.53364e-10
8.79979e-12
6.60686e-10
1.28699e-11
7.87863e-10
1.59623e-11
8.3221e-10
1.86787e-11
8.36388e-10
2.17732e-11
8.19274e-10
2.5952e-11
7.89334e-10
3.18284e-11
7.50428e-10
3.9935e-11
7.04353e-10
5.07501e-11
6.51955e-10
6.47262e-11
5.93608e-10
8.23174e-11
5.2943e-10
1.03999e-10
4.59361e-10
1.30237e-10
3.8319e-10
1.61711e-10
3.00644e-10
1.99196e-10
2.11159e-10
2.43645e-10
1.13918e-10
2.96296e-10
7.84221e-12
3.57407e-10
-1.06227e-10
4.27407e-10
-2.27728e-10
5.06737e-10
-3.5734e-10
5.95257e-10
-4.9472e-10
6.92484e-10
-6.38276e-10
7.97761e-10
-7.85574e-10
9.10193e-10
-9.33371e-10
1.0287e-09
-1.07738e-09
1.15198e-09
-1.21203e-09
1.27841e-09
-1.33017e-09
1.40585e-09
-1.423e-09
1.53145e-09
-1.48057e-09
1.65138e-09
-1.49289e-09
1.76087e-09
-1.45179e-09
1.85438e-09
-1.35306e-09
1.92616e-09
-1.19828e-09
1.97099e-09
-9.95467e-10
1.98494e-09
-7.58186e-10
1.96594e-09
-5.03145e-10
1.91379e-09
-2.47015e-10
1.82976e-09
-3.65699e-12
2.16128e-10
1.71815e-09
7.01709e-12
3.46347e-10
1.79955e-11
6.49707e-10
2.94577e-11
7.76401e-10
4.0543e-11
8.21124e-10
5.14224e-11
8.25509e-10
6.26255e-11
8.08071e-10
7.47619e-11
7.77197e-10
8.84261e-11
7.36764e-10
1.04182e-10
6.88597e-10
1.22575e-10
6.33562e-10
1.44152e-10
5.72031e-10
1.69486e-10
5.04096e-10
1.99199e-10
4.29649e-10
2.33979e-10
3.4841e-10
2.74723e-10
2.599e-10
3.22552e-10
1.63331e-10
3.78839e-10
5.76314e-11
4.44184e-10
-5.75032e-11
5.18791e-10
-1.80834e-10
6.03312e-10
-3.12248e-10
6.97656e-10
-4.51683e-10
8.0118e-10
-5.98244e-10
9.12935e-10
-7.50031e-10
1.03179e-09
-9.04429e-10
1.15649e-09
-1.05807e-09
1.28571e-09
-1.20659e-09
1.41798e-09
-1.3443e-09
1.55161e-09
-1.4638e-09
1.68444e-09
-1.55583e-09
1.81359e-09
-1.60972e-09
1.93521e-09
-1.61451e-09
2.04442e-09
-1.561e-09
2.13553e-09
-1.44417e-09
2.20257e-09
-1.26533e-09
2.24014e-09
-1.03304e-09
2.24419e-09
-7.62239e-10
2.21272e-09
-4.71674e-10
2.14586e-09
-1.80152e-10
2.04377e-09
9.84333e-11
3.47963e-10
1.91193e-09
9.65871e-12
3.36688e-10
2.56294e-11
6.33737e-10
4.32248e-11
7.58805e-10
6.0989e-11
8.0336e-10
7.87518e-11
8.07746e-10
9.68562e-11
7.89966e-10
1.15834e-10
7.5822e-10
1.3628e-10
7.16317e-10
1.58819e-10
6.66058e-10
1.84102e-10
6.0828e-10
2.12824e-10
5.43309e-10
2.45746e-10
4.71173e-10
2.83725e-10
3.9167e-10
3.27758e-10
3.04377e-10
3.79068e-10
2.08589e-10
4.3913e-10
1.03269e-10
5.09543e-10
-1.27815e-11
5.90383e-10
-1.38343e-10
6.81737e-10
-2.72188e-10
7.83661e-10
-4.14173e-10
8.95476e-10
-5.63499e-10
1.01592e-09
-7.18689e-10
1.14348e-09
-8.77587e-10
1.27654e-09
-1.03749e-09
1.41353e-09
-1.19506e-09
1.55291e-09
-1.34597e-09
1.69314e-09
-1.48454e-09
1.83254e-09
-1.6032e-09
1.969e-09
-1.69229e-09
2.09968e-09
-1.7404e-09
2.22074e-09
-1.73557e-09
2.32726e-09
-1.66752e-09
2.41343e-09
-1.53034e-09
2.47314e-09
-1.32504e-09
2.50083e-09
-1.06073e-09
2.49236e-09
-7.53766e-10
2.44557e-09
-4.24886e-10
2.36036e-09
-9.49395e-11
2.23866e-09
2.20134e-10
5.00572e-10
2.08605e-09
1.17247e-11
3.24963e-10
3.15738e-11
6.13887e-10
5.3928e-11
7.36451e-10
7.69013e-11
7.80387e-10
1.00085e-10
7.84562e-10
1.23698e-10
7.66354e-10
1.48237e-10
7.33681e-10
1.74342e-10
6.90213e-10
2.02748e-10
6.37652e-10
2.3428e-10
5.76747e-10
2.69867e-10
5.07722e-10
3.10564e-10
4.30476e-10
3.57586e-10
3.44648e-10
4.12361e-10
2.49601e-10
4.76624e-10
1.44327e-10
5.52491e-10
2.74012e-11
6.40391e-10
-1.00682e-10
7.39934e-10
-2.37886e-10
8.512e-10
-3.83454e-10
9.73307e-10
-5.3628e-10
1.10468e-09
-6.94874e-10
1.24334e-09
-8.57346e-10
1.38719e-09
-1.02143e-09
1.53422e-09
-1.18453e-09
1.68262e-09
-1.34346e-09
1.83077e-09
-1.49413e-09
1.97717e-09
-1.63094e-09
2.12022e-09
-1.74624e-09
2.25792e-09
-1.82999e-09
2.38755e-09
-1.87003e-09
2.50532e-09
-1.85334e-09
2.60626e-09
-1.76846e-09
2.6845e-09
-1.60857e-09
2.73384e-09
-1.37438e-09
2.74868e-09
-1.07557e-09
2.72488e-09
-7.29967e-10
2.66025e-09
-3.60254e-10
2.55391e-09
1.14031e-11
2.41035e-09
3.6369e-10
6.75572e-10
2.23535e-09
1.31841e-11
3.11779e-10
3.57284e-11
5.91343e-10
6.13723e-11
7.10807e-10
8.7968e-11
7.53791e-10
1.14981e-10
7.57548e-10
1.42589e-10
7.38746e-10
1.71323e-10
7.04946e-10
2.01941e-10
6.59595e-10
2.35376e-10
6.04218e-10
2.72732e-10
5.39391e-10
3.15299e-10
4.65155e-10
3.64573e-10
3.81203e-10
4.22292e-10
2.86929e-10
4.9051e-10
1.81383e-10
5.71688e-10
6.31489e-11
6.67158e-10
-6.80689e-11
7.76311e-10
-2.09835e-10
8.98709e-10
-3.60284e-10
1.03317e-09
-5.1791e-10
1.17773e-09
-6.8084e-10
1.32991e-09
-8.47054e-10
1.48704e-09
-1.01448e-09
1.64659e-09
-1.18098e-09
1.8063e-09
-1.34423e-09
1.96427e-09
-1.50143e-09
2.11894e-09
-1.64879e-09
2.26894e-09
-1.78093e-09
2.41285e-09
-1.89015e-09
2.54887e-09
-1.96601e-09
2.67438e-09
-1.99555e-09
2.78566e-09
-1.96462e-09
2.87773e-09
-1.86052e-09
2.94463e-09
-1.67548e-09
2.98015e-09
-1.4099e-09
2.97873e-09
-1.07415e-09
2.93643e-09
-6.87676e-10
2.85148e-09
-2.75304e-10
2.72203e-09
1.40859e-10
2.55376e-09
5.31963e-10
8.75055e-10
2.35427e-09
1.40186e-11
2.9776e-10
3.80259e-11
5.67336e-10
6.54233e-11
6.8341e-10
9.39784e-11
7.25236e-10
1.23159e-10
7.28368e-10
1.53205e-10
7.08701e-10
1.84788e-10
6.73363e-10
2.18891e-10
6.25491e-10
2.56779e-10
5.6633e-10
2.99991e-10
4.96179e-10
3.50359e-10
4.14788e-10
4.10017e-10
3.21544e-10
4.81439e-10
2.15507e-10
5.67507e-10
9.53156e-11
6.70661e-10
-4.00057e-11
7.90355e-10
-1.87762e-10
9.25357e-10
-3.44837e-10
1.07411e-09
-5.09038e-10
1.23408e-09
-6.77883e-10
1.40217e-09
-8.48927e-10
1.57508e-09
-1.01996e-09
1.74964e-09
-1.18905e-09
1.92308e-09
-1.35442e-09
2.09307e-09
-1.51423e-09
2.25782e-09
-1.66618e-09
2.41594e-09
-1.80692e-09
2.56631e-09
-1.9313e-09
2.70776e-09
-2.0316e-09
2.83869e-09
-2.09694e-09
2.95663e-09
-2.11348e-09
3.05788e-09
-2.06587e-09
3.13742e-09
-1.94006e-09
3.18924e-09
-1.7273e-09
3.2071e-09
-1.42776e-09
3.18551e-09
-1.05256e-09
3.12057e-09
-6.22732e-10
3.01023e-09
-1.64971e-10
2.85469e-09
2.96407e-10
2.66007e-09
7.26578e-10
1.10009e-09
2.43504e-09
1.42206e-11
2.8354e-10
3.84334e-11
5.43123e-10
6.60174e-11
6.55826e-10
9.48476e-11
6.96406e-10
1.24541e-10
6.98674e-10
1.55537e-10
6.77705e-10
1.88787e-10
6.40113e-10
2.25668e-10
5.88611e-10
2.67964e-10
5.24034e-10
3.17874e-10
4.46268e-10
3.78016e-10
3.54645e-10
4.51427e-10
2.48133e-10
5.41545e-10
1.25389e-10
6.51993e-10
-1.51321e-11
7.82533e-10
-1.70546e-10
9.31177e-10
-3.36407e-10
1.09584e-09
-5.09502e-10
1.27325e-09
-6.86448e-10
1.45951e-09
-8.64139e-10
1.65056e-09
-1.03998e-09
1.84255e-09
-1.21196e-09
2.03211e-09
-1.37861e-09
2.21643e-09
-1.53874e-09
2.39335e-09
-1.69114e-09
2.56129e-09
-1.83412e-09
2.71917e-09
-1.9648e-09
2.86618e-09
-2.07831e-09
3.00142e-09
-2.16684e-09
3.12351e-09
-2.21903e-09
3.23011e-09
-2.22008e-09
3.31751e-09
-2.15327e-09
3.38062e-09
-2.00317e-09
3.41333e-09
-1.76001e-09
3.40945e-09
-1.42387e-09
3.36365e-09
-1.00676e-09
3.27224e-09
-5.31318e-10
3.13196e-09
-2.46896e-11
2.94645e-09
4.81915e-10
2.72261e-09
9.50412e-10
1.35229e-09
2.47041e-09
1.37935e-11
2.69746e-10
3.696e-11
5.19957e-10
6.31847e-11
6.29601e-10
9.06616e-11
6.68929e-10
1.19332e-10
6.70003e-10
1.50011e-10
6.47026e-10
1.84129e-10
6.05996e-10
2.23684e-10
5.49055e-10
2.71255e-10
4.76463e-10
3.30004e-10
3.8752e-10
4.03654e-10
2.80995e-10
4.9645e-10
1.55338e-10
6.13132e-10
8.70639e-12
7.54162e-10
-1.56161e-10
9.16917e-10
-3.33301e-10
1.09863e-09
-5.18122e-10
1.29512e-09
-7.05991e-10
1.50152e-09
-8.92851e-10
1.71288e-09
-1.0755e-09
1.92457e-09
-1.25166e-09
2.13254e-09
-1.41993e-09
2.33345e-09
-1.57952e-09
2.52471e-09
-1.73e-09
2.70445e-09
-1.87088e-09
2.87145e-09
-2.00112e-09
3.02498e-09
-2.11833e-09
3.16455e-09
-2.21788e-09
3.28957e-09
-2.29186e-09
3.39887e-09
-2.32833e-09
3.49016e-09
-2.31138e-09
3.5597e-09
-2.22281e-09
3.60223e-09
-2.0457e-09
3.61155e-09
-1.76933e-09
3.58149e-09
-1.39381e-09
3.50702e-09
-9.32295e-10
3.38492e-09
-4.09224e-10
3.21077e-09
1.49465e-10
2.99087e-09
7.01808e-10
2.7344e-09
1.20689e-09
1.63363e-09
2.45306e-09
1.27556e-11
2.56991e-10
3.36732e-11
4.99039e-10
5.70878e-11
6.06186e-10
8.17485e-11
6.44268e-10
1.08134e-10
6.43617e-10
1.37666e-10
6.17495e-10
1.72522e-10
5.71139e-10
2.15646e-10
5.05931e-10
2.70772e-10
4.21338e-10
3.42421e-10
3.1587e-10
4.35829e-10
1.87587e-10
5.5685e-10
3.43169e-11
7.07216e-10
-1.41659e-10
8.83875e-10
-3.32821e-10
1.08318e-09
-5.32603e-10
1.29986e-09
-7.34803e-10
1.52794e-09
-9.34074e-10
1.76143e-09
-1.12634e-09
1.99482e-09
-1.30888e-09
2.22331e-09
-1.48016e-09
2.44297e-09
-1.6396e-09
2.65075e-09
-1.78729e-09
2.84439e-09
-1.92364e-09
3.02244e-09
-2.04893e-09
3.18405e-09
-2.16273e-09
3.32889e-09
-2.26316e-09
3.45681e-09
-2.3458e-09
3.56749e-09
-2.40255e-09
3.65993e-09
-2.42077e-09
3.73185e-09
-2.3833e-09
3.77937e-09
-2.27032e-09
3.79702e-09
-2.06336e-09
3.77845e-09
-1.75076e-09
3.71745e-09
-1.33281e-09
3.60902e-09
-8.23861e-10
3.44944e-09
-2.49646e-10
3.23671e-09
3.62192e-10
2.97865e-09
9.5987e-10
2.68665e-09
1.49889e-09
1.94568e-09
2.3746e-09
1.11469e-11
2.45844e-10
2.87244e-11
4.81462e-10
4.80759e-11
5.86835e-10
6.87711e-11
6.23573e-10
9.209e-11
6.20298e-10
1.2036e-10
5.89225e-10
1.56872e-10
5.34627e-10
2.05932e-10
4.56872e-10
2.72883e-10
3.54387e-10
3.64074e-10
2.2468e-10
4.86696e-10
6.49641e-11
6.44312e-10
-1.23299e-10
8.3384e-10
-3.31188e-10
1.05045e-09
-5.49435e-10
1.28773e-09
-7.69884e-10
1.53844e-09
-9.85507e-10
1.79541e-09
-1.19104e-09
2.05212e-09
-1.38306e-09
2.30298e-09
-1.55974e-09
2.5434e-09
-1.72057e-09
2.76978e-09
-1.86598e-09
2.97949e-09
-1.99699e-09
3.17071e-09
-2.11486e-09
3.3424e-09
-2.22062e-09
3.49413e-09
-2.31447e-09
3.62594e-09
-2.39497e-09
3.73801e-09
-2.45786e-09
3.83025e-09
-2.49478e-09
3.90174e-09
-2.49226e-09
3.95018e-09
-2.43174e-09
3.97144e-09
-2.29159e-09
3.9598e-09
-2.05171e-09
3.90867e-09
-1.69962e-09
3.81192e-09
-1.23606e-09
3.66471e-09
-6.76652e-10
3.46042e-09
-4.53583e-11
3.20286e-09
6.19759e-10
2.90161e-09
1.26112e-09
2.57066e-09
1.82984e-09
2.28992e-09
2.22642e-09
9.03809e-12
2.36806e-10
2.23783e-11
4.68121e-10
3.67427e-11
5.72471e-10
5.2823e-11
6.07493e-10
7.30241e-11
6.00097e-10
1.0097e-10
5.61279e-10
1.41528e-10
4.94069e-10
2.00893e-10
3.97507e-10
2.86504e-10
2.68775e-10
4.07105e-10
1.04079e-10
5.68808e-10
-9.6739e-11
7.69017e-10
-3.23508e-10
1.00161e-09
-5.63778e-10
1.25899e-09
-8.06818e-10
1.53252e-09
-1.04341e-09
1.81371e-09
-1.2667e-09
2.09493e-09
-1.47226e-09
2.36967e-09
-1.6578e-09
2.63261e-09
-1.82269e-09
2.87959e-09
-1.96755e-09
3.10749e-09
-2.09388e-09
3.31411e-09
-2.20362e-09
3.49813e-09
-2.29888e-09
3.65891e-09
-2.38139e-09
3.79642e-09
-2.45198e-09
3.91102e-09
-2.50958e-09
4.00317e-09
-2.55001e-09
4.07297e-09
-2.56458e-09
4.11952e-09
-2.53882e-09
4.14038e-09
-2.4526e-09
4.13113e-09
-2.28234e-09
4.08562e-09
-2.0062e-09
3.99697e-09
-1.61097e-09
3.85885e-09
-1.09794e-09
3.6661e-09
-4.83905e-10
3.41062e-09
2.1012e-10
3.10165e-09
9.28736e-10
2.75166e-09
1.61111e-09
2.37792e-09
2.20358e-09
2.66775e-09
2.0001e-09
6.53885e-12
2.30267e-10
1.50355e-11
4.59625e-10
2.39714e-11
5.63535e-10
3.5497e-11
5.95967e-10
5.35375e-11
5.82057e-10
8.34959e-11
5.3132e-10
1.32374e-10
4.45191e-10
2.08874e-10
3.21007e-10
3.23008e-10
1.54641e-10
4.84406e-10
-5.73192e-11
6.91749e-10
-3.04081e-10
9.37777e-10
-5.69537e-10
1.21372e-09
-8.39716e-10
1.5094e-09
-1.1025e-09
1.81489e-09
-1.3489e-09
2.12128e-09
-1.57309e-09
2.42102e-09
-1.77201e-09
2.70799e-09
-1.94477e-09
2.97737e-09
-2.09206e-09
3.2255e-09
-2.21569e-09
3.44979e-09
-2.31816e-09
3.64852e-09
-2.40236e-09
3.82081e-09
-2.47116e-09
3.96641e-09
-2.52699e-09
4.08563e-09
-2.5712e-09
4.17912e-09
-2.60307e-09
4.24755e-09
-2.61844e-09
4.29111e-09
-2.60814e-09
4.30889e-09
-2.5566e-09
4.29817e-09
-2.44188e-09
4.25415e-09
-2.23831e-09
4.17018e-09
-1.92224e-09
4.03896e-09
-1.47975e-09
3.85355e-09
-9.12528e-10
3.60575e-09
-2.3611e-10
3.29233e-09
5.23542e-10
2.92503e-09
1.29603e-09
2.52033e-09
2.01581e-09
2.09977e-09
2.62414e-09
3.08011e-09
1.68741e-09
3.79893e-12
2.26468e-10
7.23622e-12
4.56187e-10
1.09432e-11
5.59828e-10
1.88927e-11
5.88017e-10
3.70097e-11
5.6394e-10
7.30527e-11
4.95277e-10
1.36739e-10
3.81505e-10
2.39735e-10
2.18011e-10
3.95176e-10
-8.00277e-13
6.04608e-10
-2.66751e-10
8.60101e-10
-5.59574e-10
1.15185e-09
-8.61283e-10
1.46807e-09
-1.15594e-09
1.79719e-09
-1.43162e-09
2.12883e-09
-1.68054e-09
2.45428e-09
-1.89854e-09
2.76647e-09
-2.08419e-09
3.05981e-09
-2.23811e-09
3.33009e-09
-2.36234e-09
3.57422e-09
-2.45982e-09
3.79011e-09
-2.53405e-09
3.97652e-09
-2.58877e-09
4.13295e-09