/*--------------------------------*- C++ -*----------------------------------*\
  =========                 |
  \\      /  F ield         | OpenFOAM: The Open Source CFD Toolbox
   \\    /   O peration     | Website:  https://openfoam.org
    \\  /    A nd           | Version:  6
     \\/     M anipulation  |
\*---------------------------------------------------------------------------*/
FoamFile
{
    version     2.0;
    format      ascii;
    class       volVectorField;
    location    "40";
    object      U;
}
// * * * * * * * * * * * * * * * * * * * * * * * * * * * * * * * * * * * * * //

dimensions      [0 1 -1 0 0 0 0];

internalField   nonuniform List<vector> 
8800
(
(-5.44401e-05 -0.00193319 0)
(-9.76912e-05 -0.00262214 0)
(-7.47363e-05 -0.0027178 0)
(-5.28859e-05 -0.00273122 0)
(-4.43198e-05 -0.00273341 0)
(-4.37278e-05 -0.00273255 0)
(-4.67958e-05 -0.00273078 0)
(-5.16171e-05 -0.00272986 0)
(-5.74293e-05 -0.00272971 0)
(-6.38216e-05 -0.00273012 0)
(-7.05398e-05 -0.00273098 0)
(-7.74127e-05 -0.00273224 0)
(-8.43076e-05 -0.00273389 0)
(-9.11046e-05 -0.00273594 0)
(-9.76836e-05 -0.00273841 0)
(-0.000103917 -0.00274132 0)
(-0.000109666 -0.0027447 0)
(-0.000114779 -0.00274859 0)
(-0.000119094 -0.00275301 0)
(-0.000122442 -0.00275799 0)
(-0.000124665 -0.00276348 0)
(-0.000125618 -0.00276923 0)
(-0.000125085 -0.00277422 0)
(-0.000122643 -0.00277915 0)
(-0.000118 -0.00278443 0)
(-0.000110931 -0.00279018 0)
(-0.000101302 -0.00279645 0)
(-8.91543e-05 -0.00280325 0)
(-7.47485e-05 -0.00281055 0)
(-5.85887e-05 -0.00281827 0)
(-4.1408e-05 -0.00282628 0)
(-2.41216e-05 -0.00283441 0)
(-7.77132e-06 -0.00284236 0)
(6.89031e-06 -0.00284906 0)
(1.93724e-05 -0.00285433 0)
(2.95142e-05 -0.00285786 0)
(3.75656e-05 -0.00285958 0)
(4.38509e-05 -0.0028609 0)
(4.8369e-05 -0.00286241 0)
(5.1226e-05 -0.00286412 0)
(2.17936e-05 0.000108232 0)
(2.48332e-05 0.000141213 0)
(-2.04597e-05 0.000166705 0)
(-5.67852e-05 0.000186214 0)
(-8.15274e-05 0.000198673 0)
(-0.000102112 0.000205443 0)
(-0.000121601 0.000208975 0)
(-0.000140907 0.000211689 0)
(-0.00016036 0.000214087 0)
(-0.000180007 0.000216297 0)
(-0.000199731 0.000218361 0)
(-0.000219346 0.000220288 0)
(-0.000238631 0.000222068 0)
(-0.000257339 0.000223676 0)
(-0.000275195 0.000225079 0)
(-0.000291898 0.000226237 0)
(-0.00030712 0.000227106 0)
(-0.000320506 0.000227638 0)
(-0.000331684 0.000227792 0)
(-0.000340274 0.000227528 0)
(-0.000345878 0.000226809 0)
(-0.000348067 0.000225498 0)
(-0.000346654 0.000222989 0)
(-0.000341108 0.000219395 0)
(-0.000330862 0.000214879 0)
(-0.000315486 0.000209573 0)
(-0.000294793 0.000203726 0)
(-0.000268905 0.000197717 0)
(-0.000238318 0.000192009 0)
(-0.000203919 0.000187107 0)
(-0.000166939 0.000183479 0)
(-0.000128826 0.000181448 0)
(-9.10348e-05 0.000181319 0)
(-5.50467e-05 0.000183386 0)
(-2.21459e-05 0.000187411 0)
(6.86599e-06 0.000192945 0)
(3.0994e-05 0.000199194 0)
(5.01995e-05 0.00020511 0)
(6.49403e-05 0.000210116 0)
(7.57507e-05 0.00021417 0)
(1.50612e-05 0.000168502 0)
(1.0152e-05 0.000224223 0)
(-3.72213e-05 0.000224788 0)
(-8.53756e-05 0.000222261 0)
(-0.000125661 0.000221721 0)
(-0.000161567 0.000221883 0)
(-0.000195583 0.000222019 0)
(-0.000228668 0.000221977 0)
(-0.000261147 0.000221621 0)
(-0.000293107 0.000220887 0)
(-0.00032447 0.000219751 0)
(-0.000355046 0.000218203 0)
(-0.000384572 0.000216225 0)
(-0.000412725 0.000213789 0)
(-0.000439137 0.000210862 0)
(-0.0004634 0.000207404 0)
(-0.000485072 0.00020338 0)
(-0.000503684 0.000198759 0)
(-0.000518747 0.000193528 0)
(-0.000529764 0.000187699 0)
(-0.000536239 0.000181303 0)
(-0.000537757 0.000174259 0)
(-0.00053411 0.000166094 0)
(-0.000524789 0.000156876 0)
(-0.000509322 0.000146865 0)
(-0.000487368 0.000136487 0)
(-0.000458877 0.000126351 0)
(-0.000424146 0.000117234 0)
(-0.000383854 0.000109976 0)
(-0.000339066 0.000105393 0)
(-0.000291185 0.000104123 0)
(-0.000241839 0.00010644 0)
(-0.00019272 0.000112257 0)
(-0.000145496 0.000120908 0)
(-0.000101641 0.00013146 0)
(-6.21393e-05 0.000142758 0)
(-2.7555e-05 0.000153667 0)
(2.0337e-06 0.000163653 0)
(2.6605e-05 0.000172388 0)
(4.64652e-05 0.000179872 0)
(-4.59042e-06 5.0838e-05 0)
(-2.82715e-05 7.96513e-05 0)
(-7.21239e-05 7.82361e-05 0)
(-0.000120894 7.29539e-05 0)
(-0.000168851 6.94555e-05 0)
(-0.000215408 6.76911e-05 0)
(-0.00026072 6.68809e-05 0)
(-0.0003049 6.64151e-05 0)
(-0.000347963 6.58499e-05 0)
(-0.000389852 6.48955e-05 0)
(-0.000430419 6.33681e-05 0)
(-0.000469432 6.11392e-05 0)
(-0.000506585 5.81027e-05 0)
(-0.000541517 5.41588e-05 0)
(-0.000573816 4.92118e-05 0)
(-0.000603036 4.31723e-05 0)
(-0.000628705 3.59596e-05 0)
(-0.000650333 2.75094e-05 0)
(-0.000667428 1.77892e-05 0)
(-0.000679508 6.82185e-06 0)
(-0.00068614 -5.29392e-06 0)
(-0.000686987 -1.83843e-05 0)
(-0.000681605 -3.23219e-05 0)
(-0.000669595 -4.77736e-05 0)
(-0.000650649 -6.4488e-05 0)
(-0.000624616 -8.18559e-05 0)
(-0.000591597 -9.90143e-05 0)
(-0.000552 -0.000114885 0)
(-0.000506573 -0.000128302 0)
(-0.000456402 -0.000138134 0)
(-0.00040288 -0.00014347 0)
(-0.000347612 -0.000143858 0)
(-0.000292288 -0.00013931 0)
(-0.00023854 -0.000130517 0)
(-0.000187791 -0.000118532 0)
(-0.0001411 -0.000104618 0)
(-9.91422e-05 -9.01465e-05 0)
(-6.2216e-05 -7.60615e-05 0)
(-3.03614e-05 -6.29379e-05 0)
(-3.41141e-06 -5.1076e-05 0)
(-1.05431e-05 6.47253e-05 0)
(-4.30151e-05 0.000112506 0)
(-9.17583e-05 0.000124842 0)
(-0.00014623 0.00012532 0)
(-0.000201772 0.000123347 0)
(-0.000256892 0.00012158 0)
(-0.000310919 0.0001203 0)
(-0.000363524 0.000119182 0)
(-0.00041451 0.00011784 0)
(-0.000463694 0.000115953 0)
(-0.000510858 0.000113273 0)
(-0.000555729 0.000109602 0)
(-0.000597981 0.000104773 0)
(-0.000637241 9.86337e-05 0)
(-0.000673102 9.10494e-05 0)
(-0.000705129 8.19018e-05 0)
(-0.000732874 7.10925e-05 0)
(-0.000755886 5.85516e-05 0)
(-0.000773722 4.42538e-05 0)
(-0.000785967 2.82402e-05 0)
(-0.000792259 1.06266e-05 0)
(-0.000792261 -8.45158e-06 0)
(-0.000785453 -2.91794e-05 0)
(-0.000771541 -5.1852e-05 0)
(-0.000750326 -7.60564e-05 0)
(-0.000721794 -0.00010098 0)
(-0.000686139 -0.000125504 0)
(-0.000643814 -0.000148245 0)
(-0.00059557 -0.000167713 0)
(-0.000542466 -0.000182457 0)
(-0.00048585 -0.000191299 0)
(-0.000427282 -0.000193621 0)
(-0.000368421 -0.000189376 0)
(-0.000310878 -0.00017934 0)
(-0.000256068 -0.000164787 0)
(-0.000205098 -0.000147298 0)
(-0.000158719 -0.000128562 0)
(-0.000117332 -0.000109768 0)
(-8.10782e-05 -9.16967e-05 0)
(-4.99061e-05 -7.48461e-05 0)
(-1.11924e-05 9.76486e-05 0)
(-4.73753e-05 0.000170162 0)
(-0.000102147 0.000192728 0)
(-0.000162802 0.000196904 0)
(-0.00022448 0.000195526 0)
(-0.000285723 0.000192921 0)
(-0.000345704 0.000190129 0)
(-0.000403915 0.000187129 0)
(-0.00046003 0.000183641 0)
(-0.00051378 0.000179363 0)
(-0.00056489 0.000174021 0)
(-0.000613063 0.000167379 0)
(-0.000657968 0.000159232 0)
(-0.000699246 0.000149396 0)
(-0.000736518 0.000137712 0)
(-0.000769389 0.000124049 0)
(-0.000797458 0.000108306 0)
(-0.00082033 9.04228e-05 0)
(-0.000837619 7.03945e-05 0)
(-0.000848972 4.82924e-05 0)
(-0.000854078 2.42582e-05 0)
(-0.000852587 -1.59583e-06 0)
(-0.000844027 -2.95575e-05 0)
(-0.000828208 -5.96412e-05 0)
(-0.000804984 -9.12724e-05 0)
(-0.000774399 -0.000123465 0)
(-0.000736685 -0.000154881 0)
(-0.000692297 -0.000183867 0)
(-0.000641975 -0.000208636 0)
(-0.000586763 -0.000227443 0)
(-0.000528004 -0.000238844 0)
(-0.000467278 -0.00024207 0)
(-0.000406284 -0.000237035 0)
(-0.000346689 -0.000224652 0)
(-0.00028996 -0.000206457 0)
(-0.000237256 -0.00018439 0)
(-0.000189345 -0.000160522 0)
(-0.00014663 -0.000136342 0)
(-0.000109239 -0.000112858 0)
(-7.70913e-05 -9.07196e-05 0)
(-1.14555e-05 0.000125574 0)
(-4.95558e-05 0.000221048 0)
(-0.000107722 0.000252527 0)
(-0.000171895 0.000259791 0)
(-0.000236983 0.000258779 0)
(-0.000301516 0.000255157 0)
(-0.000364576 0.000250601 0)
(-0.00042555 0.000245376 0)
(-0.000484026 0.000239327 0)
(-0.000539674 0.000232188 0)
(-0.000592183 0.000223686 0)
(-0.000641243 0.00021357 0)
(-0.000686534 0.000201614 0)
(-0.000727723 0.000187617 0)
(-0.000764469 0.000171407 0)
(-0.00079643 0.000152851 0)
(-0.000823262 0.000131848 0)
(-0.000844626 0.000108348 0)
(-0.000860198 8.23629e-05 0)
(-0.000869682 5.39855e-05 0)
(-0.000872818 2.33789e-05 0)
(-0.000869214 -9.3373e-06 0)
(-0.000858502 -4.45033e-05 0)
(-0.000840514 -8.19299e-05 0)
(-0.000815135 -0.000120897 0)
(-0.000782425 -0.00016027 0)
(-0.000742612 -0.000198521 0)
(-0.000696139 -0.000233745 0)
(-0.000643739 -0.000263863 0)
(-0.00058647 -0.000286817 0)
(-0.000525728 -0.000300874 0)
(-0.000463187 -0.00030508 0)
(-0.000400672 -0.000299278 0)
(-0.000339988 -0.000284515 0)
(-0.00028272 -0.000262588 0)
(-0.000230105 -0.000235803 0)
(-0.000182921 -0.000206668 0)
(-0.000141505 -0.000176995 0)
(-0.000105891 -0.000148049 0)
(-7.58583e-05 -0.000120673 0)
(-1.14888e-05 0.00015305 0)
(-4.99367e-05 0.000271999 0)
(-0.000108736 0.000312979 0)
(-0.000173577 0.000323608 0)
(-0.000239306 0.000323052 0)
(-0.000304389 0.000318392 0)
(-0.000367824 0.000311956 0)
(-0.000428926 0.000304313 0)
(-0.000487227 0.000295445 0)
(-0.000542357 0.000285147 0)
(-0.000593987 0.000273169 0)
(-0.000641806 0.000259264 0)
(-0.000685508 0.000243205 0)
(-0.000724797 0.000224789 0)
(-0.000759374 0.000203843 0)
(-0.000788949 0.000180234 0)
(-0.000813233 0.00015387 0)
(-0.000831945 0.000124708 0)
(-0.000844815 9.27724e-05 0)
(-0.000851605 5.81615e-05 0)
(-0.000852091 2.10367e-05 0)
(-0.000845778 -1.85033e-05 0)
(-0.000832461 -6.08582e-05 0)
(-0.000811906 -0.00010561 0)
(-0.000784006 -0.000151903 0)
(-0.000748813 -0.000198468 0)
(-0.000706529 -0.000243596 0)
(-0.000657583 -0.00028512 0)
(-0.000602712 -0.000320645 0)
(-0.000543028 -0.000347759 0)
(-0.000480029 -0.000364389 0)
(-0.000415552 -0.00036935 0)
(-0.000351625 -0.00036239 0)
(-0.00029027 -0.000344703 0)
(-0.000233243 -0.000318382 0)
(-0.000181902 -0.000286155 0)
(-0.000137063 -0.00025106 0)
(-9.89547e-05 -0.000215277 0)
(-6.74695e-05 -0.000180381 0)
(-4.22077e-05 -0.000147474 0)
(-1.10283e-05 0.000180494 0)
(-4.82271e-05 0.000323033 0)
(-0.000105314 0.000373715 0)
(-0.000168342 0.000387775 0)
(-0.000232239 0.000387629 0)
(-0.000295426 0.00038181 0)
(-0.000356845 0.000373311 0)
(-0.000415768 0.000363015 0)
(-0.000471695 0.000351056 0)
(-0.000524235 0.000337305 0)
(-0.000573051 0.00032155 0)
(-0.000617838 0.000303567 0)
(-0.000658315 0.000283141 0)
(-0.000694215 0.00026008 0)
(-0.000725283 0.000234217 0)
(-0.000751274 0.000205427 0)
(-0.00077195 0.000173627 0)
(-0.000787076 0.00013878 0)
(-0.00079643 0.000100917 0)
(-0.000799828 6.01239e-05 0)
(-0.000797051 1.65291e-05 0)
(-0.000787441 -2.9801e-05 0)
(-0.000771005 -7.92819e-05 0)
(-0.000747387 -0.0001313 0)
(-0.000716474 -0.000184883 0)
(-0.000678279 -0.000238631 0)
(-0.000632974 -0.000290645 0)
(-0.000580976 -0.000338476 0)
(-0.00052305 -0.000379367 0)
(-0.000460395 -0.000410496 0)
(-0.000394645 -0.000429393 0)
(-0.000327881 -0.000434588 0)
(-0.000262365 -0.000425706 0)
(-0.000200433 -0.000404122 0)
(-0.000144029 -0.000372255 0)
(-9.46126e-05 -0.00033329 0)
(-5.31835e-05 -0.000290956 0)
(-1.9822e-05 -0.000247887 0)
(5.79163e-06 -0.000205983 0)
(2.4153e-05 -0.000166857 0)
(-1.01169e-05 0.0002065 0)
(-4.46717e-05 0.000371626 0)
(-9.80364e-05 0.000431729 0)
(-0.000157112 0.000449132 0)
(-0.00021705 0.000449332 0)
(-0.000276256 0.000442268 0)
(-0.000333642 0.00043159 0)
(-0.000388461 0.000418499 0)
(-0.000440195 0.000403288 0)
(-0.000488445 0.000385916 0)
(-0.000532876 0.000366221 0)
(-0.000573196 0.000344012 0)
(-0.000609145 0.000319101 0)
(-0.000640487 0.000291311 0)
(-0.000667002 0.00026049 0)
(-0.000688482 0.000226522 0)
(-0.000704724 0.00018933 0)
(-0.000715528 0.000148885 0)
(-0.00072071 0.000105215 0)
(-0.000720132 5.83793e-05 0)
(-0.000713523 8.43284e-06 0)
(-0.000700124 -4.4628e-05 0)
(-0.000680045 -0.000101125 0)
(-0.000652835 -0.000160335 0)
(-0.000618353 -0.000221185 0)
(-0.000576556 -0.000282137 0)
(-0.000527594 -0.00034107 0)
(-0.000471882 -0.000395226 0)
(-0.000410238 -0.000441432 0)
(-0.000344003 -0.00047638 0)
(-0.000274953 -0.000497178 0)
(-0.000205525 -0.000502001 0)
(-0.000138123 -0.000490278 0)
(-7.55714e-05 -0.000463578 0)
(-1.9947e-05 -0.000424699 0)
(2.74102e-05 -0.000377127 0)
(6.47694e-05 -0.000325951 0)
(9.23914e-05 -0.000274262 0)
(0.000110722 -0.000224488 0)
(0.000120654 -0.00017826 0)
(-8.86101e-06 0.000230015 0)
(-3.96508e-05 0.000415946 0)
(-8.76378e-05 0.000484939 0)
(-0.000141 0.000505555 0)
(-0.000195241 0.000506079 0)
(-0.000248778 0.00049776 0)
(-0.000300516 0.000484883 0)
(-0.000349701 0.000468966 0)
(-0.000395813 0.000450467 0)
(-0.000438453 0.000429438 0)
(-0.000477293 0.000405779 0)
(-0.000512056 0.000379338 0)
(-0.000542502 0.000349958 0)
(-0.000568421 0.000317488 0)
(-0.000589619 0.000281788 0)
(-0.000605916 0.000242752 0)
(-0.00061713 0.000200307 0)
(-0.00062307 0.000154423 0)
(-0.000623575 0.00010512 0)
(-0.000618508 5.24427e-05 0)
(-0.000607326 -3.59107e-06 0)
(-0.00058991 -6.33793e-05 0)
(-0.000565685 -0.000126846 0)
(-0.000534327 -0.000193231 0)
(-0.000495669 -0.000261376 0)
(-0.000449597 -0.000329607 0)
(-0.000396274 -0.00039551 0)
(-0.000336143 -0.000456 0)
(-0.000270111 -0.000507457 0)
(-0.000199757 -0.00054601 0)
(-0.000126889 -0.000568274 0)
(-5.4598e-05 -0.000571973 0)
(1.51531e-05 -0.000556117 0)
(7.84087e-05 -0.000522581 0)
(0.000132996 -0.000475128 0)
(0.0001775 -0.00041815 0)
(0.00021078 -0.000356486 0)
(0.000232521 -0.000294372 0)
(0.000243158 -0.00023492 0)
(0.000243758 -0.000180179 0)
(-7.36088e-06 0.000250333 0)
(-3.35556e-05 0.000454732 0)
(-7.49095e-05 0.000531898 0)
(-0.000121213 0.000555567 0)
(-0.000168428 0.000556423 0)
(-0.000215013 0.000546901 0)
(-0.000259887 0.000531884 0)
(-0.000302302 0.0005132 0)
(-0.000341742 0.000491474 0)
(-0.000377814 0.000466856 0)
(-0.000410201 0.000439312 0)
(-0.00043864 0.000408736 0)
(-0.00046291 0.000375007 0)
(-0.000482817 0.000337997 0)
(-0.000498189 0.000297582 0)
(-0.000508858 0.00025366 0)
(-0.000514651 0.000206154 0)
(-0.000515377 0.000155018 0)
(-0.000510873 0.000100244 0)
(-0.000500964 4.18439e-05 0)
(-0.000484805 -2.01619e-05 0)
(-0.00046271 -8.65468e-05 0)
(-0.00043372 -0.000156984 0)
(-0.000397541 -0.000230582 0)
(-0.000353995 -0.000306073 0)
(-0.000302856 -0.000381682 0)
(-0.000244409 -0.000454602 0)
(-0.000179145 -0.000521424 0)
(-0.000108153 -0.000578024 0)
(-3.33433e-05 -0.000619898 0)
(4.40068e-05 -0.000642936 0)
(0.00011901 -0.000644064 0)
(0.00018996 -0.000623164 0)
(0.000253866 -0.00058201 0)
(0.000308095 -0.000524555 0)
(0.000350549 -0.000456017 0)
(0.000379883 -0.000381969 0)
(0.00039565 -0.000307506 0)
(0.000398293 -0.000236518 0)
(0.000389008 -0.000171621 0)
(-5.71687e-06 0.000266969 0)
(-2.67845e-05 0.000487085 0)
(-6.06601e-05 0.00057154 0)
(-9.89758e-05 0.000598059 0)
(-0.00013824 0.000599277 0)
(-0.000176984 0.000588655 0)
(-0.000214158 0.000571622 0)
(-0.000249032 0.000550302 0)
(-0.000281101 0.000525488 0)
(-0.00030998 0.000497434 0)
(-0.000335364 0.000466168 0)
(-0.000357002 0.000431636 0)
(-0.000374684 0.000393749 0)
(-0.000388225 0.000352406 0)
(-0.000397461 0.000307493 0)
(-0.000402225 0.000258909 0)
(-0.000402337 0.000206561 0)
(-0.000397589 0.000150371 0)
(-0.000387791 9.02644e-05 0)
(-0.000372634 2.61765e-05 0)
(-0.000351012 -4.18339e-05 0)
(-0.000323572 -0.000114757 0)
(-0.000289058 -0.000192204 0)
(-0.000247209 -0.00027309 0)
(-0.000197917 -0.000356001 0)
(-0.00014079 -0.00043914 0)
(-7.6523e-05 -0.000519134 0)
(-5.41534e-06 -0.000592461 0)
(7.09683e-05 -0.00065388 0)
(0.000149913 -0.000697892 0)
(0.000229869 -0.000720498 0)
(0.000307947 -0.000718701 0)
(0.000381296 -0.000691905 0)
(0.000446631 -0.00064188 0)
(0.000500874 -0.000572893 0)
(0.00054152 -0.000490921 0)
(0.000566972 -0.000402458 0)
(0.000576685 -0.00031356 0)
(0.000571125 -0.000228995 0)
(0.000551583 -0.000152084 0)
(-4.02666e-06 0.000279658 0)
(-1.97246e-05 0.000512461 0)
(-4.56706e-05 0.00060318 0)
(-7.54681e-05 0.000632298 0)
(-0.000106236 0.000633917 0)
(-0.000136612 0.000622334 0)
(-0.000165601 0.000603461 0)
(-0.0001925 0.000579699 0)
(-0.000216814 0.000552002 0)
(-0.00023817 0.000520723 0)
(-0.000256272 0.000485961 0)
(-0.000270876 0.000447706 0)
(-0.000281776 0.000405901 0)
(-0.00028878 0.000360463 0)
(-0.000291715 0.000311289 0)
(-0.000290399 0.000258269 0)
(-0.000284619 0.000201278 0)
(-0.000274132 0.000140179 0)
(-0.000258654 7.48072e-05 0)
(-0.000237371 5.07198e-06 0)
(-0.000209954 -6.91251e-05 0)
(-0.000176347 -0.000148648 0)
(-0.000135342 -0.000233266 0)
(-8.6863e-05 -0.00032161 0)
(-3.08563e-05 -0.000412235 0)
(3.33611e-05 -0.00050368 0)
(0.000103607 -0.000590306 0)
(0.000179713 -0.00066866 0)
(0.000260322 -0.000733556 0)
(0.000343703 -0.000779523 0)
(0.000427744 -0.000801656 0)
(0.000509549 -0.000796413 0)
(0.000585772 -0.000762783 0)
(0.000652769 -0.000702556 0)
(0.000707079 -0.000620366 0)
(0.000745864 -0.000522971 0)
(0.000767298 -0.000417928 0)
(0.000770749 -0.000312386 0)
(0.000756701 -0.000212108 0)
(0.000726469 -0.000121276 0)
(-2.37823e-06 0.00028835 0)
(-1.27274e-05 0.000530671 0)
(-3.06553e-05 0.000626514 0)
(-5.17688e-05 0.000657927 0)
(-7.38433e-05 0.000659978 0)
(-9.56599e-05 0.000647597 0)
(-0.000116294 0.000627098 0)
(-0.000135078 0.000601127 0)
(-0.000151533 0.000570792 0)
(-0.00016529 0.000536544 0)
(-0.000176058 0.000498545 0)
(-0.000183593 0.000456828 0)
(-0.000187681 0.000411363 0)
(-0.000188102 0.000362072 0)
(-0.000184652 0.000308861 0)
(-0.000177109 0.000251596 0)
(-0.000165204 0.000190098 0)
(-0.000148638 0.000124125 0)
(-0.000126936 5.3359e-05 0)
(-9.84949e-05 -2.20972e-05 0)
(-6.45217e-05 -0.00010274 0)
(-2.35939e-05 -0.000189317 0)
(2.52275e-05 -0.000282162 0)
(8.10431e-05 -0.000378191 0)
(0.000144162 -0.000476206 0)
(0.000214207 -0.000573542 0)
(0.000290417 -0.000666226 0)
(0.000372201 -0.000749697 0)
(0.000458242 -0.000818272 0)
(0.000546784 -0.000865897 0)
(0.000635467 -0.000887017 0)
(0.000721202 -0.000877532 0)
(0.000800316 -0.000835963 0)
(0.000868834 -0.000764057 0)
(0.000922948 -0.00066685 0)
(0.000959524 -0.000551945 0)
(0.000976534 -0.00042808 0)
(0.000973271 -0.000303633 0)
(0.000950187 -0.000185489 0)
(0.00090859 -7.88037e-05 0)
(-8.4659e-07 0.000293181 0)
(-6.09607e-06 0.00054184 0)
(-1.62344e-05 0.000641585 0)
(-2.88228e-05 0.000674929 0)
(-4.23203e-05 0.000677423 0)
(-5.56818e-05 0.000664414 0)
(-6.80715e-05 0.000642519 0)
(-7.88639e-05 0.000614597 0)
(-8.75911e-05 0.000581891 0)
(-9.38854e-05 0.000544943 0)
(-9.74457e-05 0.000503974 0)
(-9.80157e-05 0.000459056 0)
(-9.53581e-05 0.000410176 0)
(-8.91969e-05 0.000357245 0)
(-7.9271e-05 0.000300171 0)
(-6.52839e-05 0.000238764 0)
(-4.68626e-05 0.000172747 0)
(-2.36181e-05 0.000101658 0)
(5.31845e-06 2.46539e-05 0)
(4.15145e-05 -5.73519e-05 0)
(8.34119e-05 -0.000144894 0)
(0.000132552 -0.00023868 0)
(0.000188952 -0.000338032 0)
(0.000252449 -0.000441221 0)
(0.000323065 -0.000546259 0)
(0.000400306 -0.000650109 0)
(0.000483493 -0.000748655 0)
(0.000571791 -0.000836856 0)
(0.000663864 -0.000908621 0)
(0.000757844 -0.000957326 0)
(0.000851204 -0.000976703 0)
(0.000940664 -0.000961987 0)
(0.0010223 -0.000911204 0)
(0.00109183 -0.000826012 0)
(0.00114515 -0.000711872 0)
(0.00117884 -0.000577306 0)
(0.00119072 -0.000432332 0)
(0.00117998 -0.000286689 0)
(0.00114696 -0.000148512 0)
(0.00109336 -2.39252e-05 0)
(5.1612e-07 0.000294433 0)
(-6.23942e-08 0.000546349 0)
(-2.9085e-06 0.00064874 0)
(-7.41432e-06 0.000683602 0)
(-1.27284e-05 0.000686521 0)
(-1.80035e-05 0.000673039 0)
(-2.25045e-05 0.000649982 0)
(-2.56491e-05 0.000620369 0)
(-2.69761e-05 0.000585558 0)
(-2.6106e-05 0.000546167 0)
(-2.27106e-05 0.000502467 0)
(-1.64907e-05 0.000454552 0)
(-7.15349e-06 0.00040239 0)
(5.66348e-06 0.000345734 0)
(2.22522e-05 0.00028468 0)
(4.30607e-05 0.000218886 0)
(6.85865e-05 0.000147909 0)
(9.93648e-05 7.11524e-05 0)
(0.000137124 -1.17362e-05 0)
(0.000180705 -0.000100194 0)
(0.000231268 -0.000194736 0)
(0.000289348 -0.000295748 0)
(0.000354753 -0.000402312 0)
(0.000427249 -0.00051264 0)
(0.000506548 -0.000624404 0)
(0.000592057 -0.000734352 0)
(0.000682976 -0.000838202 0)
(0.00077828 -0.000930528 0)
(0.000876546 -0.00100479 0)
(0.000975821 -0.00105375 0)
(0.00107346 -0.00107042 0)
(0.00116603 -0.0010493 0)
(0.00124941 -0.000987877 0)
(0.00131907 -0.000887688 0)
(0.00137062 -0.000754627 0)
(0.00140043 -0.000598199 0)
(0.00140615 -0.000429804 0)
(0.00138687 -0.000260682 0)
(0.00134279 -0.000100282 0)
(0.00127781 4.54948e-05 0)
(1.70952e-06 0.000292579 0)
(5.2735e-06 0.000544804 0)
(8.99092e-06 0.00064851 0)
(1.18589e-05 0.000684431 0)
(1.40817e-05 0.000687727 0)
(1.62948e-05 0.000673907 0)
(1.91232e-05 0.000649887 0)
(2.31057e-05 0.000618797 0)
(2.87047e-05 0.000582077 0)
(3.63272e-05 0.000540403 0)
(4.63478e-05 0.000494074 0)
(5.91316e-05 0.000443193 0)
(7.50468e-05 0.000387725 0)
(9.44823e-05 0.000327526 0)
(0.000117886 0.000262422 0)
(0.000145845 0.000192017 0)
(0.00017897 0.000115707 0)
(0.000218114 3.27469e-05 0)
(0.000265139 -5.67291e-05 0)
(0.000318297 -0.000152197 0)
(0.000379151 -0.000254165 0)
(0.000447754 -0.000362608 0)
(0.000523731 -0.000476372 0)
(0.000606593 -0.000593544 0)
(0.000695711 -0.000711554 0)
(0.000790279 -0.00082696 0)
(0.000889329 -0.000935294 0)
(0.000991693 -0.00103082 0)
(0.00109587 -0.00110657 0)
(0.00119985 -0.0011547 0)
(0.00130093 -0.00116746 0)
(0.00139557 -0.00113858 0)
(0.0014795 -0.00106496 0)
(0.00154799 -0.000947969 0)
(0.00159643 -0.000793951 0)
(0.001621 -0.000613441 0)
(0.00161919 -0.000419311 0)
(0.00158989 -0.000224422 0)
(0.00153333 -3.97921e-05 0)
(0.00145398 0.000128215 0)
(2.74508e-06 0.000287913 0)
(9.88736e-06 0.000537955 0)
(1.92858e-05 0.000641779 0)
(2.85973e-05 0.000678238 0)
(3.74778e-05 0.000681776 0)
(4.6361e-05 0.000667681 0)
(5.57587e-05 0.000642854 0)
(6.61669e-05 0.000610464 0)
(7.80572e-05 0.000572003 0)
(9.18784e-05 0.000528175 0)
(0.000108072 0.000479294 0)
(0.00012709 0.00042545 0)
(0.000149413 0.000366584 0)
(0.000175567 0.000302514 0)
(0.000206188 0.000232931 0)
(0.000242034 0.00015729 0)
(0.000283974 7.48037e-05 0)
(0.000333981 -1.51944e-05 0)
(0.000390983 -0.000111868 0)
(0.000455772 -0.000215012 0)
(0.00052884 -0.000324833 0)
(0.000609796 -0.000440842 0)
(0.000697922 -0.000561615 0)
(0.000792342 -0.000685075 0)
(0.000892074 -0.000808502 0)
(0.000996059 -0.000928336 0)
(0.00110317 -0.00103996 0)
(0.00121215 -0.00113741 0)
(0.00132145 -0.00121331 0)
(0.00142908 -0.00125924 0)
(0.0015323 -0.00126667 0)
(0.00162753 -0.0012285 0)
(0.00171039 -0.00114099 0)
(0.00177601 -0.00100534 0)
(0.0018196 -0.000828302 0)
(0.0018372 -0.000621521 0)
(0.00182622 -0.00039944 0)
(0.00178537 -0.000176508 0)
(0.00171705 3.62178e-05 0)
(0.00162055 0.000227151 0)
(3.60741e-06 0.000280871 0)
(1.37189e-05 0.000526599 0)
(2.78226e-05 0.000629516 0)
(4.24966e-05 0.000666042 0)
(5.69656e-05 0.000669663 0)
(7.14993e-05 0.000655307 0)
(8.65142e-05 0.000629758 0)
(0.000102477 0.000596169 0)
(0.000119888 0.000556031 0)
(0.000139264 0.000510049 0)
(0.000161152 0.00045852 0)
(0.00018614 0.0004015 0)
(0.00021488 0.000338877 0)
(0.00024812 0.000270377 0)
(0.00028674 0.000195525 0)
(0.000331751 0.000113569 0)
(0.000384611 2.35968e-05 0)
(0.000446842 -7.44097e-05 0)
(0.000516897 -0.000179216 0)
(0.000595799 -0.000290764 0)
(0.000683261 -0.000408732 0)
(0.000778379 -0.000532143 0)
(0.000879966 -0.000659321 0)
(0.000986718 -0.000788065 0)
(0.00109731 -0.000915605 0)
(0.00121049 -0.00103837 0)
(0.001325 -0.00115168 0)
(0.00143956 -0.00124941 0)
(0.00155268 -0.00132385 0)
(0.00166239 -0.00136596 0)
(0.001766 -0.00136643 0)
(0.00185991 -0.00131729 0)
(0.00193968 -0.00121412 0)
(0.00200031 -0.00105787 0)
(0.00203692 -0.000855746 0)
(0.00204542 -0.000620524 0)
(0.00202308 -0.000368316 0)
(0.00196849 -0.000115381 0)
(0.00188476 0.000126529 0)
(0.00177139 0.000342465 0)
(4.28129e-06 0.000271913 0)
(1.67055e-05 0.00051162 0)
(3.44591e-05 0.000612798 0)
(5.33011e-05 0.000648979 0)
(7.21469e-05 0.000652513 0)
(9.11567e-05 0.000637854 0)
(0.00011069 0.000611594 0)
(0.000131217 0.000576799 0)
(0.000153304 0.000534915 0)
(0.000177585 0.000486602 0)
(0.000204772 0.000432098 0)
(0.000235668 0.000371389 0)
(0.000271193 0.000304259 0)
(0.000312411 0.000230292 0)
(0.00036055 0.000148791 0)
(0.000417101 5.87752e-05 0)
(0.000484454 -4.05751e-05 0)
(0.00056084 -0.000147498 0)
(0.00064692 -0.000261447 0)
(0.000742429 -0.000381873 0)
(0.000846282 -0.000507835 0)
(0.00095695 -0.000637922 0)
(0.00107272 -0.00077029 0)
(0.00119188 -0.000902729 0)
(0.00131287 -0.00103255 0)
(0.00143428 -0.00115628 0)
(0.00155487 -0.0012693 0)
(0.0016734 -0.00136537 0)
(0.00178848 -0.00143647 0)
(0.00189824 -0.00147297 0)
(0.00200006 -0.0014647 0)
(0.00209034 -0.00140279 0)
(0.00216461 -0.00128208 0)
(0.00221779 -0.00110326 0)
(0.00224494 -0.000874006 0)
(0.00224196 -0.000608255 0)
(0.00220603 -0.00032378 0)
(0.00213594 -3.85241e-05 0)
(0.0020342 0.000233717 0)
(0.00190249 0.000475346 0)
(4.75726e-06 0.00026152 0)
(1.87992e-05 0.000493957 0)
(3.90804e-05 0.000592789 0)
(6.0808e-05 0.000628303 0)
(8.27147e-05 0.000631577 0)
(0.000104919 0.000616516 0)
(0.000127781 0.00058945 0)
(0.000151832 0.000553299 0)
(0.000177766 0.000509398 0)
(0.000206412 0.000458306 0)
(0.000238744 0.000400149 0)
(0.000275893 0.000334779 0)
(0.000319167 0.00026182 0)
(0.000370075 0.000180632 0)
(0.000430382 9.02535e-05 0)
(0.000502563 -1.0444e-05 0)
(0.000586309 -0.000120211 0)
(0.000680895 -0.000237481 0)
(0.000786039 -0.000361324 0)
(0.000900402 -0.000490528 0)
(0.00102208 -0.000623609 0)
(0.00114889 -0.000758893 0)
(0.00127869 -0.000894532 0)
(0.00140946 -0.00102847 0)
(0.00153953 -0.00115823 0)
(0.00166748 -0.00128058 0)
(0.00179215 -0.00139103 0)
(0.00191246 -0.00148329 0)
(0.00202715 -0.00154901 0)
(0.0021345 -0.00157795 0)
(0.00223197 -0.00155905 0)
(0.00231598 -0.00148247 0)
(0.002382 -0.00134225 0)
(0.00242492 -0.00113887 0)
(0.0024398 -0.000880475 0)
(0.0024226 -0.000582285 0)
(0.0023705 -0.000263652 0)
(0.0022841 5.76487e-05 0)
(0.00216143 0.000360474 0)
(0.00200945 0.000627563 0)
(5.03042e-06 0.000250197 0)
(1.99691e-05 0.000474598 0)
(4.16074e-05 0.000570719 0)
(6.48772e-05 0.000605346 0)
(8.8465e-05 0.000608196 0)
(0.000112531 0.000592564 0)
(0.000137516 0.000564459 0)
(0.000164098 0.000526587 0)
(0.000193195 0.0004801 0)
(0.00022595 0.00042538 0)
(0.000263736 0.000362364 0)
(0.000308166 0.000290697 0)
(0.0003611 0.000209763 0)
(0.000424675 0.000118651 0)
(0.000501548 1.61516e-05 0)
(0.000592998 -9.74082e-05 0)
(0.000697129 -0.000219162 0)
(0.000813348 -0.000347684 0)
(0.000939952 -0.000481311 0)
(0.00107454 -0.000618221 0)
(0.0012144 -0.000756612 0)
(0.00135687 -0.000894781 0)
(0.00149947 -0.00103108 0)
(0.0016401 -0.00116377 0)
(0.0017771 -0.00129075 0)
(0.00190918 -0.00140909 0)
(0.00203535 -0.00151448 0)
(0.00215474 -0.00160063 0)
(0.0022663 -0.00165884 0)
(0.00236844 -0.00167821 0)
(0.00245869 -0.00164671 0)
(0.00253349 -0.00155346 0)
(0.00258825 -0.00139171 0)
(0.00261782 -0.00116169 0)
(0.00261727 -0.000872153 0)
(0.00258261 -0.000539626 0)
(0.00251107 -0.000185191 0)
(0.00240348 0.000172551 0)
(0.00225906 0.000507517 0)
(0.00208568 0.000800051 0)
(5.09907e-06 0.000238457 0)
(2.02005e-05 0.000454563 0)
(4.20006e-05 0.000547864 0)
(6.54444e-05 0.000581488 0)
(8.93229e-05 0.00058374 0)
(0.00011394 0.000567265 0)
(0.000139928 0.000537688 0)
(0.000168234 0.00049742 0)
(0.000200146 0.000447339 0)
(0.000237288 0.000387551 0)
(0.000281624 0.000317708 0)
(0.000335459 0.000237162 0)
(0.000401422 0.00014501 0)
(0.000482557 4.00425e-05 0)
(0.000581541 -7.84173e-05 0)
(0.000695795 -0.000206109 0)
(0.000824221 -0.000340974 0)
(0.000964586 -0.000480653 0)
(0.00111385 -0.000622788 0)
(0.00126869 -0.000765226 0)
(0.00142579 -0.000906165 0)
(0.00158219 -0.00104415 0)
(0.00173534 -0.00117794 0)
(0.0018832 -0.00130625 0)
(0.00202426 -0.00142745 0)
(0.00215748 -0.00153899 0)
(0.00228211 -0.00163678 0)
(0.00239752 -0.00171448 0)
(0.00250288 -0.00176304 0)
(0.00259674 -0.00177079 0)
(0.00267669 -0.00172467 0)
(0.00273913 -0.00161267 0)
(0.00277938 -0.00142725 0)
(0.00279228 -0.00116849 0)
(0.00277298 -0.000845811 0)
(0.00271764 -0.000477093 0)
(0.00262353 -8.49718e-05 0)
(0.00249087 0.000310172 0)
(0.00232191 0.000677135 0)
(0.00212529 0.000993979 0)
(4.96414e-06 0.000226819 0)
(1.94969e-05 0.000434885 0)
(4.02718e-05 0.000525506 0)
(6.25477e-05 0.000558099 0)
(8.53905e-05 0.000559539 0)
(0.000109379 0.000541781 0)
(0.000135484 0.000509995 0)
(0.000165094 0.000466197 0)
(0.000200074 0.000410869 0)
(0.000242763 0.000343716 0)
(0.000295982 0.000263995 0)
(0.000363006 0.000170699 0)
(0.000447487 6.25913e-05 0)
(0.000553285 -6.18719e-05 0)
(0.000677722 -0.000197184 0)
(0.000819054 -0.000340431 0)
(0.000974353 -0.000488279 0)
(0.00113982 -0.000637576 0)
(0.00131132 -0.000785628 0)
(0.0014849 -0.000930353 0)
(0.00165696 -0.00107029 0)
(0.00182449 -0.00120447 0)
(0.00198504 -0.00133221 0)
(0.00213682 -0.00145281 0)
(0.00227858 -0.00156514 0)
(0.00240955 -0.00166706 0)
(0.00252929 -0.00175469 0)
(0.00263742 -0.00182164 0)
(0.00273333 -0.00185842 0)
(0.00281568 -0.0018525 0)
(0.00288208 -0.00178969 0)
(0.00292884 -0.00165681 0)
(0.00295116 -0.00144549 0)
(0.00294382 -0.00115579 0)
(0.0029021 -0.000797953 0)
(0.00282243 -0.000391149 0)
(0.00270302 4.31507e-05 0)
(0.00254119 0.000474861 0)
(0.0023445 0.000872255 0)
(0.00212241 0.00121096 0)
(4.62993e-06 0.000215791 0)
(1.78858e-05 0.000416574 0)
(3.6504e-05 0.000504885 0)
(5.637e-05 0.000536466 0)
(7.70204e-05 0.00053677 0)
(9.94765e-05 0.000517018 0)
(0.000125247 0.000481829 0)
(0.000156405 0.000432684 0)
(0.000195667 0.000369519 0)
(0.000246412 0.00029148 0)
(0.000312666 0.000197318 0)
(0.000398975 8.55799e-05 0)
(0.000510112 -4.56476e-05 0)
(0.000644251 -0.000190465 0)
(0.000798649 -0.000344448 0)
(0.000969589 -0.000503031 0)
(0.00115235 -0.000661976 0)
(0.00134193 -0.000817823 0)
(0.00153355 -0.000968041 0)
(0.00172297 -0.00111101 0)
(0.00190662 -0.00124587 0)
(0.00208165 -0.00137233 0)
(0.00224591 -0.00149036 0)
(0.00239789 -0.00159987 0)
(0.00253668 -0.00170027 0)
(0.00266182 -0.00178981 0)
(0.00277317 -0.00186482 0)
(0.00287063 -0.00191878 0)
(0.00295374 -0.00194168 0)